 Entering Gaussian System, Link 0=/home/fuchs/agschreiner/public/bin/gaussian16-C.01/g16/g16
 Input=cluster.com
 Output=cluster.log
 Initial command:
 /home/fuchs/agschreiner/public/bin/gaussian09-E.01/g09/l1.exe "/scratch/fuchs/giessen/schwan/promotion/dimer_paper/bondshare/AdMe/core/Gau-118258.inp" -scrdir="/scratch/fuchs/giessen/schwan/promotion/dimer_paper/bondshare/AdMe/core/"
 Entering Link 1 = /home/fuchs/agschreiner/public/bin/gaussian09-E.01/g09/l1.exe PID=    118259.
  
 Copyright (c) 1988,1990,1992,1993,1995,1998,2003,2009,2015,
            Gaussian, Inc.  All Rights Reserved.
  
 This is part of the Gaussian(R) 09 program.  It is based on
 the Gaussian(R) 03 system (copyright 2003, Gaussian, Inc.),
 the Gaussian(R) 98 system (copyright 1998, Gaussian, Inc.),
 the Gaussian(R) 94 system (copyright 1995, Gaussian, Inc.),
 the Gaussian 92(TM) system (copyright 1992, Gaussian, Inc.),
 the Gaussian 90(TM) system (copyright 1990, Gaussian, Inc.),
 the Gaussian 88(TM) system (copyright 1988, Gaussian, Inc.),
 the Gaussian 86(TM) system (copyright 1986, Carnegie Mellon
 University), and the Gaussian 82(TM) system (copyright 1983,
 Carnegie Mellon University). Gaussian is a federally registered
 trademark of Gaussian, Inc.
  
 This software contains proprietary and confidential information,
 including trade secrets, belonging to Gaussian, Inc.
  
 This software is provided under written license and may be
 used, copied, transmitted, or stored only in accord with that
 written license.
  
 The following legend is applicable only to US Government
 contracts under FAR:
  
                    RESTRICTED RIGHTS LEGEND
  
 Use, reproduction and disclosure by the US Government is
 subject to restrictions as set forth in subparagraphs (a)
 and (c) of the Commercial Computer Software - Restricted
 Rights clause in FAR 52.227-19.
  
 Gaussian, Inc.
 340 Quinnipiac St., Bldg. 40, Wallingford CT 06492
  
  
 ---------------------------------------------------------------
 Warning -- This program may not be used in any manner that
 competes with the business of Gaussian, Inc. or will provide
 assistance to any competitor of Gaussian, Inc.  The licensee
 of this program is prohibited from giving any competitor of
 Gaussian, Inc. access to this program.  By using this program,
 the user acknowledges that Gaussian, Inc. is engaged in the
 business of creating and licensing software in the field of
 computational chemistry and represents and warrants to the
 licensee that it is not a competitor of Gaussian, Inc. and that
 it will not use this program in any manner prohibited above.
 ---------------------------------------------------------------
  

 Cite this work as:
 Gaussian 09, Revision E.01,
 M. J. Frisch, G. W. Trucks, H. B. Schlegel, G. E. Scuseria, 
 M. A. Robb, J. R. Cheeseman, G. Scalmani, V. Barone, B. Mennucci, 
 G. A. Petersson, H. Nakatsuji, M. Caricato, X. Li, H. P. Hratchian, 
 A. F. Izmaylov, J. Bloino, G. Zheng, J. L. Sonnenberg, M. Hada, 
 M. Ehara, K. Toyota, R. Fukuda, J. Hasegawa, M. Ishida, T. Nakajima, 
 Y. Honda, O. Kitao, H. Nakai, T. Vreven, J. A. Montgomery, Jr., 
 J. E. Peralta, F. Ogliaro, M. Bearpark, J. J. Heyd, E. Brothers, 
 K. N. Kudin, V. N. Staroverov, T. Keith, R. Kobayashi, J. Normand, 
 K. Raghavachari, A. Rendell, J. C. Burant, S. S. Iyengar, J. Tomasi, 
 M. Cossi, N. Rega, J. M. Millam, M. Klene, J. E. Knox, J. B. Cross, 
 V. Bakken, C. Adamo, J. Jaramillo, R. Gomperts, R. E. Stratmann, 
 O. Yazyev, A. J. Austin, R. Cammi, C. Pomelli, J. W. Ochterski, 
 R. L. Martin, K. Morokuma, V. G. Zakrzewski, G. A. Voth, 
 P. Salvador, J. J. Dannenberg, S. Dapprich, A. D. Daniels, 
 O. Farkas, J. B. Foresman, J. V. Ortiz, J. Cioslowski, 
 and D. J. Fox, Gaussian, Inc., Wallingford CT, 2013.
 
 ******************************************
 Gaussian 09:  ES64L-G09RevE.01 30-Nov-2015
                 2-Jul-2020 
 ******************************************
 %NProcShared=20
 Will use up to   20 processors via shared memory.
 %Mem=124GB
 %Chk=ziel1
 ----------------------------------------------------------------------
 #p cc-pVDZ pbepbe empiricaldispersion=gd3bj scf=(xqc,maxcycle=250) int
 =(grid=ultrafine,acc2E=11) iop(6/7=3) gfinput nosymm
 ----------------------------------------------------------------------
 1/38=1/1;
 2/12=2,15=1,17=6,18=5,40=1/2;
 3/5=16,11=2,16=1,24=10,25=1,30=1,74=1009,75=-5,124=41/1,2,3;
 4//1;
 5/5=2,7=250,8=3,13=1,38=5,87=11/2,8;
 6/7=3,8=2,9=2,10=2,28=1/1;
 99/5=1,9=1/99;
 Leave Link    1 at Thu Jul  2 22:48:00 2020, MaxMem= 16642998272 cpu:         7.5
 (Enter /home/fuchs/agschreiner/public/bin/gaussian09-E.01/g09/l101.exe)
 ---
 opt
 ---
 Symbolic Z-matrix:
 Charge =  0 Multiplicity = 1
 C                    -4.13798   0.56216   1.33574 
 C                    -4.68191   0.00704   0.00174 
 C                    -4.13342   0.87812  -1.14895 
 C                    -2.59023   0.88343  -1.17053 
 C                    -2.10143  -0.57145  -1.3293 
 C                    -2.60891  -1.47153  -0.1828 
 C                    -2.10618  -0.8876    1.15422 
 C                    -2.59495   0.56121   1.363 
 C                    -2.0877    1.4209    0.18616 
 C                    -4.15185  -1.43145  -0.18046 
 H                    -4.52698  -0.04861   2.1806 
 H                    -4.51341   1.59822   1.48974 
 H                    -4.51903   0.49819  -2.12109 
 H                    -4.50904   1.91986  -1.04022 
 H                    -2.44777  -0.9781   -2.30543 
 H                    -0.98942  -0.58931  -1.35288 
 H                    -2.45602  -1.52548   1.99614 
 H                    -0.99431  -0.91249   1.17578 
 H                    -0.97552   1.43811   0.19106 
 H                    -2.42373   2.47324   0.31948 
 H                    -4.53786  -1.8533   -1.13502 
 H                    -4.5408   -2.07893   0.63661 
 C                     4.15064  -0.09532  -1.43868 
 C                     4.68181   0.00329   0.00757 
 C                     4.13427  -1.19592   0.81113 
 C                     2.59111  -1.21808   0.81645 
 C                     2.08875   0.10494   1.43212 
 C                     2.5953    1.32979   0.64187 
 C                     2.10539   1.20517  -0.81635 
 C                     2.60771  -0.09556  -1.47738 
 C                     2.10128  -1.29243  -0.64495 
 C                     4.13834   1.30279   0.63962 
 H                     4.53898   0.75802  -2.03795 
 H                     4.53644  -1.02369  -1.91558 
 H                     4.51082  -1.14758   1.85708 
 H                     4.51965  -2.1444    0.37529 
 H                     2.42559   0.17688   2.49019 
 H                     0.97657   0.10868   1.45049 
 H                     2.45467   2.08275  -1.40454 
 H                     0.99351   1.22809  -0.83896 
 H                     0.98926  -1.31525  -0.66338 
 H                     2.44763  -2.24318  -1.10782 
 H                     4.51494   1.39666   1.68242 
 H                     4.52646   2.18163   0.07825 
 
 NAtoms=     44 NQM=       44 NQMF=       0 NMMI=      0 NMMIF=      0
                NMic=       0 NMicF=      0.
                    Isotopes and Nuclear Properties:
 (Nuclear quadrupole moments (NQMom) in fm**2, nuclear magnetic moments (NMagM)
  in nuclear magnetons)

  Atom         1           2           3           4           5           6           7           8           9          10
 IAtWgt=          12          12          12          12          12          12          12          12          12          12
 AtmWgt=  12.0000000  12.0000000  12.0000000  12.0000000  12.0000000  12.0000000  12.0000000  12.0000000  12.0000000  12.0000000
 NucSpn=           0           0           0           0           0           0           0           0           0           0
 AtZEff=   0.0000000   0.0000000   0.0000000   0.0000000   0.0000000   0.0000000   0.0000000   0.0000000   0.0000000   0.0000000
 NQMom=    0.0000000   0.0000000   0.0000000   0.0000000   0.0000000   0.0000000   0.0000000   0.0000000   0.0000000   0.0000000
 NMagM=    0.0000000   0.0000000   0.0000000   0.0000000   0.0000000   0.0000000   0.0000000   0.0000000   0.0000000   0.0000000
 AtZNuc=   6.0000000   6.0000000   6.0000000   6.0000000   6.0000000   6.0000000   6.0000000   6.0000000   6.0000000   6.0000000

  Atom        11          12          13          14          15          16          17          18          19          20
 IAtWgt=           1           1           1           1           1           1           1           1           1           1
 AtmWgt=   1.0078250   1.0078250   1.0078250   1.0078250   1.0078250   1.0078250   1.0078250   1.0078250   1.0078250   1.0078250
 NucSpn=           1           1           1           1           1           1           1           1           1           1
 AtZEff=   0.0000000   0.0000000   0.0000000   0.0000000   0.0000000   0.0000000   0.0000000   0.0000000   0.0000000   0.0000000
 NQMom=    0.0000000   0.0000000   0.0000000   0.0000000   0.0000000   0.0000000   0.0000000   0.0000000   0.0000000   0.0000000
 NMagM=    2.7928460   2.7928460   2.7928460   2.7928460   2.7928460   2.7928460   2.7928460   2.7928460   2.7928460   2.7928460
 AtZNuc=   1.0000000   1.0000000   1.0000000   1.0000000   1.0000000   1.0000000   1.0000000   1.0000000   1.0000000   1.0000000

  Atom        21          22          23          24          25          26          27          28          29          30
 IAtWgt=           1           1          12          12          12          12          12          12          12          12
 AtmWgt=   1.0078250   1.0078250  12.0000000  12.0000000  12.0000000  12.0000000  12.0000000  12.0000000  12.0000000  12.0000000
 NucSpn=           1           1           0           0           0           0           0           0           0           0
 AtZEff=   0.0000000   0.0000000   0.0000000   0.0000000   0.0000000   0.0000000   0.0000000   0.0000000   0.0000000   0.0000000
 NQMom=    0.0000000   0.0000000   0.0000000   0.0000000   0.0000000   0.0000000   0.0000000   0.0000000   0.0000000   0.0000000
 NMagM=    2.7928460   2.7928460   0.0000000   0.0000000   0.0000000   0.0000000   0.0000000   0.0000000   0.0000000   0.0000000
 AtZNuc=   1.0000000   1.0000000   6.0000000   6.0000000   6.0000000   6.0000000   6.0000000   6.0000000   6.0000000   6.0000000

  Atom        31          32          33          34          35          36          37          38          39          40
 IAtWgt=          12          12           1           1           1           1           1           1           1           1
 AtmWgt=  12.0000000  12.0000000   1.0078250   1.0078250   1.0078250   1.0078250   1.0078250   1.0078250   1.0078250   1.0078250
 NucSpn=           0           0           1           1           1           1           1           1           1           1
 AtZEff=   0.0000000   0.0000000   0.0000000   0.0000000   0.0000000   0.0000000   0.0000000   0.0000000   0.0000000   0.0000000
 NQMom=    0.0000000   0.0000000   0.0000000   0.0000000   0.0000000   0.0000000   0.0000000   0.0000000   0.0000000   0.0000000
 NMagM=    0.0000000   0.0000000   2.7928460   2.7928460   2.7928460   2.7928460   2.7928460   2.7928460   2.7928460   2.7928460
 AtZNuc=   6.0000000   6.0000000   1.0000000   1.0000000   1.0000000   1.0000000   1.0000000   1.0000000   1.0000000   1.0000000

  Atom        41          42          43          44
 IAtWgt=           1           1           1           1
 AtmWgt=   1.0078250   1.0078250   1.0078250   1.0078250
 NucSpn=           1           1           1           1
 AtZEff=   0.0000000   0.0000000   0.0000000   0.0000000
 NQMom=    0.0000000   0.0000000   0.0000000   0.0000000
 NMagM=    2.7928460   2.7928460   2.7928460   2.7928460
 AtZNuc=   1.0000000   1.0000000   1.0000000   1.0000000
 Leave Link  101 at Thu Jul  2 22:48:00 2020, MaxMem= 16642998272 cpu:         2.0
 (Enter /home/fuchs/agschreiner/public/bin/gaussian09-E.01/g09/l202.exe)
                          Input orientation:                          
 ---------------------------------------------------------------------
 Center     Atomic      Atomic             Coordinates (Angstroms)
 Number     Number       Type             X           Y           Z
 ---------------------------------------------------------------------
      1          6           0       -4.137978    0.562156    1.335735
      2          6           0       -4.681913    0.007044    0.001737
      3          6           0       -4.133423    0.878120   -1.148948
      4          6           0       -2.590230    0.883430   -1.170525
      5          6           0       -2.101430   -0.571455   -1.329298
      6          6           0       -2.608912   -1.471534   -0.182800
      7          6           0       -2.106182   -0.887597    1.154218
      8          6           0       -2.594955    0.561207    1.362997
      9          6           0       -2.087697    1.420898    0.186158
     10          6           0       -4.151848   -1.431446   -0.180457
     11          1           0       -4.526977   -0.048615    2.180602
     12          1           0       -4.513411    1.598220    1.489744
     13          1           0       -4.519027    0.498190   -2.121092
     14          1           0       -4.509038    1.919865   -1.040224
     15          1           0       -2.447772   -0.978098   -2.305429
     16          1           0       -0.989415   -0.589312   -1.352879
     17          1           0       -2.456019   -1.525483    1.996139
     18          1           0       -0.994310   -0.912492    1.175778
     19          1           0       -0.975517    1.438110    0.191056
     20          1           0       -2.423727    2.473244    0.319484
     21          1           0       -4.537860   -1.853304   -1.135015
     22          1           0       -4.540798   -2.078930    0.636608
     23          6           0        4.150638   -0.095318   -1.438684
     24          6           0        4.681812    0.003292    0.007574
     25          6           0        4.134273   -1.195918    0.811131
     26          6           0        2.591110   -1.218078    0.816453
     27          6           0        2.088755    0.104937    1.432118
     28          6           0        2.595296    1.329788    0.641868
     29          6           0        2.105387    1.205169   -0.816350
     30          6           0        2.607708   -0.095558   -1.477378
     31          6           0        2.101280   -1.292428   -0.644949
     32          6           0        4.138337    1.302790    0.639621
     33          1           0        4.538981    0.758021   -2.037952
     34          1           0        4.536439   -1.023689   -1.915575
     35          1           0        4.510816   -1.147576    1.857078
     36          1           0        4.519654   -2.144403    0.375285
     37          1           0        2.425591    0.176881    2.490190
     38          1           0        0.976572    0.108682    1.450486
     39          1           0        2.454670    2.082750   -1.404540
     40          1           0        0.993510    1.228087   -0.838959
     41          1           0        0.989259   -1.315249   -0.663384
     42          1           0        2.447628   -2.243176   -1.107818
     43          1           0        4.514945    1.396659    1.682421
     44          1           0        4.526462    2.181630    0.078247
 ---------------------------------------------------------------------
                    Distance matrix (angstroms):
                    1          2          3          4          5
     1  C    0.000000
     2  C    1.543880   0.000000
     3  C    2.504696   1.543920   0.000000
     4  C    2.963120   2.552918   1.543353   0.000000
     5  C    3.540480   2.960608   2.502555   1.542992   0.000000
     6  C    2.963088   2.552955   2.962844   2.553783   1.543417
     7  C    2.502585   2.960234   3.540062   2.962309   2.503561
     8  C    1.543264   2.552551   2.962631   2.553935   2.962252
     9  C    2.502522   2.960228   2.502421   1.543373   2.503251
    10  C    2.504692   1.543832   2.504478   2.962691   2.502725
    11  H    1.112727   2.185075   3.478451   3.981174   4.298375
    12  H    1.112698   2.185041   2.761455   3.359552   4.297923
    13  H    3.478354   2.184985   1.112700   2.184548   2.759683
    14  H    2.761565   2.185052   1.112718   2.184720   3.476609
    15  H    4.299681   3.359301   2.761233   2.184854   1.112719
    16  H    4.297438   3.978085   3.475590   2.182849   1.112409
    17  H    2.761042   3.358702   4.299134   3.981034   3.477704
    18  H    3.476036   3.977730   4.297054   3.358189   2.759968
    19  H    3.475449   3.977582   3.475855   2.183774   2.759983
    20  H    2.761102   3.358945   2.761118   2.185259   3.477434
    21  H    3.478356   2.184914   2.761239   3.359202   2.759905
    22  H    2.761590   2.185009   3.478263   3.980707   3.476749
    23  C    8.765320   8.949818   8.346089   6.816829   6.271127
    24  C    8.936724   9.363727   8.933713   7.419242   6.937574
    25  C    8.473262   8.934616   8.746333   7.312290   6.622340
    26  C    6.979936   7.420346   7.312741   5.933860   5.200221
    27  C    6.244241   6.920803   6.780502   5.410425   5.063652
    28  C    6.812319   7.424095   6.977584   5.511232   5.436860
    29  C    6.635099   6.940620   6.256223   4.719933   4.595304
    30  C    7.338289   7.438876   6.819000   5.298220   4.735440
    31  C    6.803745   6.936753   6.620938   5.198159   4.318671
    32  C    8.338496   8.937710   8.473567   6.980409   6.806184
    33  H    9.311807   9.473604   8.718677   7.182882   6.809167
    34  H    9.398480   9.471879   8.909045   7.414958   6.679038
    35  H    8.831570   9.448899   9.373500   7.982244   7.362521
    36  H    9.121542   9.457119   9.291645   7.880847   7.015592
    37  H    6.675450   7.532453   7.533639   6.249680   5.970126
    38  H    5.135896   5.841888   5.784560   4.493552   4.202842
    39  H    7.299611   7.564191   6.702196   5.190775   5.273378
    40  H    5.612925   5.865845   5.148204   3.615510   3.613508
    41  H    5.814609   5.861145   5.593612   4.231326   3.247927
    42  H    7.563799   7.558105   7.283845   5.929554   4.851561
    43  H    8.699981   9.451874   9.114812   7.673735   7.531291
    44  H    8.903735   9.461968   8.843005   7.341121   7.313659
                    6          7          8          9         10
     6  C    0.000000
     7  C    1.543158   0.000000
     8  C    2.553766   1.543218   0.000000
     9  C    2.962087   2.503325   1.543156   0.000000
    10  C    1.543458   2.502374   2.962572   3.539914   0.000000
    11  H    3.359962   2.760001   2.184736   3.476688   2.761800
    12  H    3.980944   3.476582   2.184476   2.759505   3.478387
    13  H    3.359365   4.297661   3.980566   3.476516   2.761228
    14  H    3.980859   4.297806   3.359336   2.759687   3.478228
    15  H    2.185177   3.477648   3.981014   3.477476   2.761323
    16  H    2.184072   2.760739   3.358189   2.759675   3.476312
    17  H    2.184962   1.112706   2.185050   3.477477   2.760841
    18  H    2.182934   1.112360   2.183782   2.760354   3.475447
    19  H    3.357645   2.759529   2.182884   1.112324   4.296679
    20  H    3.980937   3.477481   2.184977   1.112710   4.299180
    21  H    2.184789   3.476527   3.980554   4.297581   1.112723
    22  H    2.184616   2.759448   3.359207   4.297605   1.112706
    23  C    7.011614   6.818992   7.333721   6.622375   8.502920
    24  C    7.440834   6.941566   7.422922   6.918653   8.951390
    25  C    6.821613   6.257480   6.976715   6.778734   8.348564
    26  C    5.301224   4.721001   5.509976   5.408577   6.819592
    27  C    5.211650   4.319704   4.706389   4.552683   6.626160
    28  C    5.967517   5.223331   5.296173   4.705996   7.336523
    29  C    5.458089   5.099032   5.220867   4.316656   6.819757
    30  C    5.548186   5.456499   5.963789   5.207094   7.011291
    31  C    4.736198   4.593869   5.433455   5.059685   6.271897
    32  C    7.341568   6.637517   6.812521   6.243644   8.767881
    33  H    7.713940   7.553555   7.905582   7.021320   9.152844
    34  H    7.366078   7.318918   8.007353   7.366985   8.869229
    35  H    7.413270   6.659299   7.325028   7.275260   8.903588
    36  H    7.181968   6.788814   7.675517   7.510275   8.718492
    37  H    5.933663   4.843025   5.159859   5.217845   7.278857
    38  H    4.245044   3.253263   3.601144   3.565134   5.597558
    39  H    6.305985   6.014281   5.955927   4.858134   7.582482
    40  H    4.549279   4.249348   4.262677   3.252979   5.829361
    41  H    3.633485   3.615012   4.524808   4.204269   5.165045
    42  H    5.198046   5.262279   6.276713   5.972352   6.713567
    43  H    7.902843   7.023970   7.165939   6.770102   9.304934
    44  H    8.020431   7.387140   7.415587   6.658638   9.403952
                   11         12         13         14         15
    11  H    0.000000
    12  H    1.785926   0.000000
    13  H    4.336315   3.774684   0.000000
    14  H    3.774778   2.550337   1.785927   0.000000
    15  H    5.031054   5.030668   2.550196   3.774618   0.000000
    16  H    5.029134   5.028355   3.772396   4.333759   1.784744
    17  H    2.550301   3.774496   5.030193   5.030388   4.336264
    18  H    3.773022   4.334320   5.028221   5.028541   3.773017
    19  H    4.333764   3.772124   4.334276   3.772785   3.773332
    20  H    3.774546   2.549894   3.774591   2.550207   4.336186
    21  H    3.774962   4.336241   2.549946   3.774470   2.550357
    22  H    2.550743   3.774921   3.774511   4.336259   3.774675
    23  C    9.402257   9.301049   8.716710   8.899984   6.713388
    24  C    9.461847   9.449484   9.456828   9.446843   7.559371
    25  C    8.843586   9.113187   9.292338   9.372430   7.285857
    26  C    7.341370   7.671967   7.882182   7.981606   5.932459
    27  C    6.659708   6.769181   7.512838   7.275803   5.976814
    28  C    7.415826   7.164123   7.677180   7.324560   6.280560
    29  C    7.385252   7.020046   6.788596   6.656690   5.264529
    30  C    8.017903   7.898294   7.180339   7.409528   5.198310
    31  C    7.311950   7.527743   7.015254   7.360121   4.852822
    32  C    8.904414   8.698433   9.122439   8.830615   7.566546
    33  H   10.031872   9.751737   9.062116   9.176709   7.204191
    34  H    9.993745  10.018502   9.184760   9.552559   6.995232
    35  H    9.110110   9.439863  10.003622   9.957978   8.110311
    36  H    9.460076   9.841012   9.742328  10.001961   7.555894
    37  H    6.963109   7.153380   8.342355   7.974389   6.934090
    38  H    5.553996   5.688601   6.565782   6.290941   5.197511
    39  H    8.132611   7.560807   7.187262   6.975133   5.849302
    40  H    6.420552   5.990495   5.706547   5.549513   4.342834
    41  H    6.334151   6.588144   5.979522   6.390558   3.824025
    42  H    8.017164   8.364193   7.554873   8.107446   5.196118
    43  H    9.170243   9.032661   9.843100   9.440276   8.367906
    44  H    9.558172   9.167988   9.460018   9.108224   8.019086
                   16         17         18         19         20
    16  H    0.000000
    17  H    3.774024   0.000000
    18  H    2.549230   1.784753   0.000000
    19  H    2.548405   3.772677   2.548600   0.000000
    20  H    3.772705   4.336131   3.773551   1.784743   0.000000
    21  H    3.773142   3.774341   4.333779   5.028137   5.030323
    22  H    4.334668   2.549692   3.772116   5.027855   5.030393
    23  C    5.164450   7.582302   5.828694   5.593293   7.273991
    24  C    5.862153   7.565724   5.867003   5.839327   7.529053
    25  C    5.594917   6.704089   5.149336   5.782089   7.530726
    26  C    4.233380   5.192270   3.616314   4.490800   6.246713
    27  C    4.208720   4.861209   3.256710   3.564737   5.216256
    28  C    4.529030   5.958389   4.265928   3.600787   5.157714
    29  C    3.617434   6.014397   4.249845   3.249784   4.838492
    30  C    3.632987   6.304866   4.547653   4.239731   5.928136
    31  C    3.247759   5.272441   3.611382   4.197789   5.965410
    32  C    5.817556   7.302383   5.615960   5.135273   6.673315
    33  H    5.731300   8.391561   6.613318   5.986709   7.548430
    34  H    5.571389   8.027937   6.337034   6.393747   8.103575
    35  H    6.392811   6.978463   5.552103   6.289774   7.972605
    36  H    5.979524   7.188202   5.706329   6.562412   8.338844
    37  H    5.197932   5.193480   3.822320   4.294677   5.788016
    38  H    3.494446   3.840691   2.236657   2.676602   4.293292
    39  H    4.359393   6.978454   5.246425   3.837665   5.188786
    40  H    2.738439   5.245872   3.548615   2.232063   3.817055
    41  H    2.217552   4.357430   2.734825   3.488753   5.192993
    42  H    3.822118   5.847682   4.339639   5.192000   6.929063
    43  H    6.592049   7.565162   5.995061   5.689557   7.152748
    44  H    6.336493   8.134865   6.423168   5.553136   6.960485
                   21         22         23         24         25
    21  H    0.000000
    22  H    1.785936   0.000000
    23  C    8.869765   9.153285   0.000000
    24  C    9.473902   9.475647   1.543869   0.000000
    25  C    8.912101   8.721642   2.504647   1.543894   0.000000
    26  C    7.418487   7.185925   2.962830   2.552855   1.543332
    27  C    7.371357   7.025175   3.540194   2.960339   2.502398
    28  C    8.010699   7.908427   2.962889   2.552542   2.962481
    29  C    7.320419   7.554348   2.502323   2.959954   3.539816
    30  C    7.366548   7.713874   1.543415   2.552794   2.962848
    31  C    6.680788   6.810153   2.502590   2.960375   2.502508
    32  C    9.401418   9.314689   2.504837   1.543872   2.504590
    33  H    9.488064   9.881496   1.112708   2.184992   3.478353
    34  H    9.145514   9.488066   1.112717   2.185023   2.761581
    35  H    9.556632   9.180887   3.478365   2.185041   1.112711
    36  H    9.187182   9.064457   2.761414   2.184972   1.112701
    37  H    8.108847   7.553477   4.299527   3.359174   2.761053
    38  H    6.398685   5.990778   4.296931   3.977676   3.475893
    39  H    8.028739   8.391808   2.760698   3.358329   4.298829
    40  H    6.338665   6.613791   3.475418   3.977476   4.296859
    41  H    5.573238   5.731903   3.476154   3.977900   3.475565
    42  H    6.996412   7.204728   2.760981   3.358913   2.761139
    43  H   10.022649   9.756020   3.478508   2.185047   2.761434
    44  H    9.995731  10.033910   2.761669   2.185014   3.478328
                   26         27         28         29         30
    26  C    0.000000
    27  C    1.543299   0.000000
    28  C    2.553844   1.543159   0.000000
    29  C    2.962111   2.503278   1.543353   0.000000
    30  C    2.553818   2.962209   2.554010   1.543106   0.000000
    31  C    1.543100   2.503397   2.962426   2.503475   1.543342
    32  C    2.963099   2.502737   1.543280   2.502453   2.963087
    33  H    3.980803   4.297850   3.359504   2.759463   2.184640
    34  H    3.359475   4.297907   3.980879   3.476509   2.184821
    35  H    2.184752   2.759667   3.359060   4.297525   3.980849
    36  H    2.184489   3.476449   3.980480   4.297478   3.359414
    37  H    2.185109   1.112722   2.185014   3.477515   3.981078
    38  H    2.183809   1.112341   2.182941   2.759539   3.357783
    39  H    3.980815   3.477394   2.185066   1.112706   2.184892
    40  H    3.358041   2.760221   2.183783   1.112343   2.182946
    41  H    2.182954   2.759882   3.358460   2.760733   2.183944
    42  H    2.185002   3.477600   3.981115   3.477524   2.185055
    43  H    3.359746   2.760000   2.184554   3.476564   3.981030
    44  H    3.981024   3.476786   2.184653   2.759599   3.359639
                   31         32         33         34         35
    31  C    0.000000
    32  C    3.540463   0.000000
    33  H    3.476662   2.761646   0.000000
    34  H    2.759838   3.478507   1.785909   0.000000
    35  H    3.476634   2.761383   4.336283   3.774774   0.000000
    36  H    2.759578   3.478277   3.774672   2.550358   1.785903
    37  H    3.477520   2.761481   5.030727   5.030687   2.550134
    38  H    2.760240   3.475652   5.028081   5.028447   3.772848
    39  H    3.477599   2.760737   2.549602   3.774239   5.030000
    40  H    2.760035   3.475877   3.772123   4.333814   5.028303
    41  H    1.112409   4.297516   4.334560   3.772993   4.333845
    42  H    1.112711   4.299525   3.774399   2.550049   3.774612
    43  H    4.298095   1.112689   3.774867   4.336373   2.550227
    44  H    4.298093   1.112719   2.550514   3.774851   3.774666
                   36         37         38         39         40
    36  H    0.000000
    37  H    3.774425   0.000000
    38  H    4.334268   1.784738   0.000000
    39  H    5.029986   4.336139   3.772651   0.000000
    40  H    5.028099   3.773476   2.548512   1.784747   0.000000
    41  H    3.772270   3.772867   2.548761   3.774009   2.549393
    42  H    2.550028   4.336222   3.773614   4.336096   3.773118
    43  H    3.774619   2.550637   3.772634   3.774226   4.334314
    44  H    4.336225   3.774937   4.333806   2.549658   3.772567
                   41         42         43         44
    41  H    0.000000
    42  H    1.784772   0.000000
    43  H    5.028689   5.030670   0.000000
    44  H    5.028915   5.030628   1.785970   0.000000
 Symmetry turned off by external request.
 Stoichiometry    C20H24
 Framework group  C1[X(C20H24)]
 Deg. of freedom   126
 Full point group                 C1      NOp   1
 Rotational constants (GHZ):      0.8930031      0.1611374      0.1611357
 Leave Link  202 at Thu Jul  2 22:48:00 2020, MaxMem= 16642998272 cpu:         0.3
 (Enter /home/fuchs/agschreiner/public/bin/gaussian09-E.01/g09/l301.exe)
 Standard basis: CC-pVDZ (5D, 7F)
 Ernie: Thresh=  0.10000D-02 Tol=  0.10000D-05 Strict=F.
 Ernie:  40 primitive shells out of 560 were deleted.
 AO basis set in the form of general basis input (Overlap normalization):
      1 0
 S   7 1.00       0.000000000000
      0.6665000000D+04  0.6935163173D-03
      0.1000000000D+04  0.5341502433D-02
      0.2280000000D+03  0.2713667141D-01
      0.6471000000D+02  0.1019923853D+00
      0.2106000000D+02  0.2755086365D+00
      0.7495000000D+01  0.4510864331D+00
      0.2797000000D+01  0.2875657448D+00
 S   7 1.00       0.000000000000
      0.6665000000D+04  0.7733547404D-05
      0.2280000000D+03  0.2780721367D-03
      0.6471000000D+02 -0.2578756542D-02
      0.2106000000D+02 -0.8950876838D-02
      0.7495000000D+01 -0.1060588547D+00
      0.2797000000D+01 -0.1315176856D+00
      0.5215000000D+00  0.1099486598D+01
 S   1 1.00       0.000000000000
      0.1596000000D+00  0.1000000000D+01
 P   3 1.00       0.000000000000
      0.9439000000D+01  0.5697925159D-01
      0.2002000000D+01  0.3132072115D+00
      0.5456000000D+00  0.7603767417D+00
 P   1 1.00       0.000000000000
      0.1517000000D+00  0.1000000000D+01
 D   1 1.00       0.000000000000
      0.5500000000D+00  0.1000000000D+01
 ****
      2 0
 S   7 1.00       0.000000000000
      0.6665000000D+04  0.6935163173D-03
      0.1000000000D+04  0.5341502433D-02
      0.2280000000D+03  0.2713667141D-01
      0.6471000000D+02  0.1019923853D+00
      0.2106000000D+02  0.2755086365D+00
      0.7495000000D+01  0.4510864331D+00
      0.2797000000D+01  0.2875657448D+00
 S   7 1.00       0.000000000000
      0.6665000000D+04  0.7733547404D-05
      0.2280000000D+03  0.2780721367D-03
      0.6471000000D+02 -0.2578756542D-02
      0.2106000000D+02 -0.8950876838D-02
      0.7495000000D+01 -0.1060588547D+00
      0.2797000000D+01 -0.1315176856D+00
      0.5215000000D+00  0.1099486598D+01
 S   1 1.00       0.000000000000
      0.1596000000D+00  0.1000000000D+01
 P   3 1.00       0.000000000000
      0.9439000000D+01  0.5697925159D-01
      0.2002000000D+01  0.3132072115D+00
      0.5456000000D+00  0.7603767417D+00
 P   1 1.00       0.000000000000
      0.1517000000D+00  0.1000000000D+01
 D   1 1.00       0.000000000000
      0.5500000000D+00  0.1000000000D+01
 ****
      3 0
 S   7 1.00       0.000000000000
      0.6665000000D+04  0.6935163173D-03
      0.1000000000D+04  0.5341502433D-02
      0.2280000000D+03  0.2713667141D-01
      0.6471000000D+02  0.1019923853D+00
      0.2106000000D+02  0.2755086365D+00
      0.7495000000D+01  0.4510864331D+00
      0.2797000000D+01  0.2875657448D+00
 S   7 1.00       0.000000000000
      0.6665000000D+04  0.7733547404D-05
      0.2280000000D+03  0.2780721367D-03
      0.6471000000D+02 -0.2578756542D-02
      0.2106000000D+02 -0.8950876838D-02
      0.7495000000D+01 -0.1060588547D+00
      0.2797000000D+01 -0.1315176856D+00
      0.5215000000D+00  0.1099486598D+01
 S   1 1.00       0.000000000000
      0.1596000000D+00  0.1000000000D+01
 P   3 1.00       0.000000000000
      0.9439000000D+01  0.5697925159D-01
      0.2002000000D+01  0.3132072115D+00
      0.5456000000D+00  0.7603767417D+00
 P   1 1.00       0.000000000000
      0.1517000000D+00  0.1000000000D+01
 D   1 1.00       0.000000000000
      0.5500000000D+00  0.1000000000D+01
 ****
      4 0
 S   7 1.00       0.000000000000
      0.6665000000D+04  0.6935163173D-03
      0.1000000000D+04  0.5341502433D-02
      0.2280000000D+03  0.2713667141D-01
      0.6471000000D+02  0.1019923853D+00
      0.2106000000D+02  0.2755086365D+00
      0.7495000000D+01  0.4510864331D+00
      0.2797000000D+01  0.2875657448D+00
 S   7 1.00       0.000000000000
      0.6665000000D+04  0.7733547404D-05
      0.2280000000D+03  0.2780721367D-03
      0.6471000000D+02 -0.2578756542D-02
      0.2106000000D+02 -0.8950876838D-02
      0.7495000000D+01 -0.1060588547D+00
      0.2797000000D+01 -0.1315176856D+00
      0.5215000000D+00  0.1099486598D+01
 S   1 1.00       0.000000000000
      0.1596000000D+00  0.1000000000D+01
 P   3 1.00       0.000000000000
      0.9439000000D+01  0.5697925159D-01
      0.2002000000D+01  0.3132072115D+00
      0.5456000000D+00  0.7603767417D+00
 P   1 1.00       0.000000000000
      0.1517000000D+00  0.1000000000D+01
 D   1 1.00       0.000000000000
      0.5500000000D+00  0.1000000000D+01
 ****
      5 0
 S   7 1.00       0.000000000000
      0.6665000000D+04  0.6935163173D-03
      0.1000000000D+04  0.5341502433D-02
      0.2280000000D+03  0.2713667141D-01
      0.6471000000D+02  0.1019923853D+00
      0.2106000000D+02  0.2755086365D+00
      0.7495000000D+01  0.4510864331D+00
      0.2797000000D+01  0.2875657448D+00
 S   7 1.00       0.000000000000
      0.6665000000D+04  0.7733547404D-05
      0.2280000000D+03  0.2780721367D-03
      0.6471000000D+02 -0.2578756542D-02
      0.2106000000D+02 -0.8950876838D-02
      0.7495000000D+01 -0.1060588547D+00
      0.2797000000D+01 -0.1315176856D+00
      0.5215000000D+00  0.1099486598D+01
 S   1 1.00       0.000000000000
      0.1596000000D+00  0.1000000000D+01
 P   3 1.00       0.000000000000
      0.9439000000D+01  0.5697925159D-01
      0.2002000000D+01  0.3132072115D+00
      0.5456000000D+00  0.7603767417D+00
 P   1 1.00       0.000000000000
      0.1517000000D+00  0.1000000000D+01
 D   1 1.00       0.000000000000
      0.5500000000D+00  0.1000000000D+01
 ****
      6 0
 S   7 1.00       0.000000000000
      0.6665000000D+04  0.6935163173D-03
      0.1000000000D+04  0.5341502433D-02
      0.2280000000D+03  0.2713667141D-01
      0.6471000000D+02  0.1019923853D+00
      0.2106000000D+02  0.2755086365D+00
      0.7495000000D+01  0.4510864331D+00
      0.2797000000D+01  0.2875657448D+00
 S   7 1.00       0.000000000000
      0.6665000000D+04  0.7733547404D-05
      0.2280000000D+03  0.2780721367D-03
      0.6471000000D+02 -0.2578756542D-02
      0.2106000000D+02 -0.8950876838D-02
      0.7495000000D+01 -0.1060588547D+00
      0.2797000000D+01 -0.1315176856D+00
      0.5215000000D+00  0.1099486598D+01
 S   1 1.00       0.000000000000
      0.1596000000D+00  0.1000000000D+01
 P   3 1.00       0.000000000000
      0.9439000000D+01  0.5697925159D-01
      0.2002000000D+01  0.3132072115D+00
      0.5456000000D+00  0.7603767417D+00
 P   1 1.00       0.000000000000
      0.1517000000D+00  0.1000000000D+01
 D   1 1.00       0.000000000000
      0.5500000000D+00  0.1000000000D+01
 ****
      7 0
 S   7 1.00       0.000000000000
      0.6665000000D+04  0.6935163173D-03
      0.1000000000D+04  0.5341502433D-02
      0.2280000000D+03  0.2713667141D-01
      0.6471000000D+02  0.1019923853D+00
      0.2106000000D+02  0.2755086365D+00
      0.7495000000D+01  0.4510864331D+00
      0.2797000000D+01  0.2875657448D+00
 S   7 1.00       0.000000000000
      0.6665000000D+04  0.7733547404D-05
      0.2280000000D+03  0.2780721367D-03
      0.6471000000D+02 -0.2578756542D-02
      0.2106000000D+02 -0.8950876838D-02
      0.7495000000D+01 -0.1060588547D+00
      0.2797000000D+01 -0.1315176856D+00
      0.5215000000D+00  0.1099486598D+01
 S   1 1.00       0.000000000000
      0.1596000000D+00  0.1000000000D+01
 P   3 1.00       0.000000000000
      0.9439000000D+01  0.5697925159D-01
      0.2002000000D+01  0.3132072115D+00
      0.5456000000D+00  0.7603767417D+00
 P   1 1.00       0.000000000000
      0.1517000000D+00  0.1000000000D+01
 D   1 1.00       0.000000000000
      0.5500000000D+00  0.1000000000D+01
 ****
      8 0
 S   7 1.00       0.000000000000
      0.6665000000D+04  0.6935163173D-03
      0.1000000000D+04  0.5341502433D-02
      0.2280000000D+03  0.2713667141D-01
      0.6471000000D+02  0.1019923853D+00
      0.2106000000D+02  0.2755086365D+00
      0.7495000000D+01  0.4510864331D+00
      0.2797000000D+01  0.2875657448D+00
 S   7 1.00       0.000000000000
      0.6665000000D+04  0.7733547404D-05
      0.2280000000D+03  0.2780721367D-03
      0.6471000000D+02 -0.2578756542D-02
      0.2106000000D+02 -0.8950876838D-02
      0.7495000000D+01 -0.1060588547D+00
      0.2797000000D+01 -0.1315176856D+00
      0.5215000000D+00  0.1099486598D+01
 S   1 1.00       0.000000000000
      0.1596000000D+00  0.1000000000D+01
 P   3 1.00       0.000000000000
      0.9439000000D+01  0.5697925159D-01
      0.2002000000D+01  0.3132072115D+00
      0.5456000000D+00  0.7603767417D+00
 P   1 1.00       0.000000000000
      0.1517000000D+00  0.1000000000D+01
 D   1 1.00       0.000000000000
      0.5500000000D+00  0.1000000000D+01
 ****
      9 0
 S   7 1.00       0.000000000000
      0.6665000000D+04  0.6935163173D-03
      0.1000000000D+04  0.5341502433D-02
      0.2280000000D+03  0.2713667141D-01
      0.6471000000D+02  0.1019923853D+00
      0.2106000000D+02  0.2755086365D+00
      0.7495000000D+01  0.4510864331D+00
      0.2797000000D+01  0.2875657448D+00
 S   7 1.00       0.000000000000
      0.6665000000D+04  0.7733547404D-05
      0.2280000000D+03  0.2780721367D-03
      0.6471000000D+02 -0.2578756542D-02
      0.2106000000D+02 -0.8950876838D-02
      0.7495000000D+01 -0.1060588547D+00
      0.2797000000D+01 -0.1315176856D+00
      0.5215000000D+00  0.1099486598D+01
 S   1 1.00       0.000000000000
      0.1596000000D+00  0.1000000000D+01
 P   3 1.00       0.000000000000
      0.9439000000D+01  0.5697925159D-01
      0.2002000000D+01  0.3132072115D+00
      0.5456000000D+00  0.7603767417D+00
 P   1 1.00       0.000000000000
      0.1517000000D+00  0.1000000000D+01
 D   1 1.00       0.000000000000
      0.5500000000D+00  0.1000000000D+01
 ****
     10 0
 S   7 1.00       0.000000000000
      0.6665000000D+04  0.6935163173D-03
      0.1000000000D+04  0.5341502433D-02
      0.2280000000D+03  0.2713667141D-01
      0.6471000000D+02  0.1019923853D+00
      0.2106000000D+02  0.2755086365D+00
      0.7495000000D+01  0.4510864331D+00
      0.2797000000D+01  0.2875657448D+00
 S   7 1.00       0.000000000000
      0.6665000000D+04  0.7733547404D-05
      0.2280000000D+03  0.2780721367D-03
      0.6471000000D+02 -0.2578756542D-02
      0.2106000000D+02 -0.8950876838D-02
      0.7495000000D+01 -0.1060588547D+00
      0.2797000000D+01 -0.1315176856D+00
      0.5215000000D+00  0.1099486598D+01
 S   1 1.00       0.000000000000
      0.1596000000D+00  0.1000000000D+01
 P   3 1.00       0.000000000000
      0.9439000000D+01  0.5697925159D-01
      0.2002000000D+01  0.3132072115D+00
      0.5456000000D+00  0.7603767417D+00
 P   1 1.00       0.000000000000
      0.1517000000D+00  0.1000000000D+01
 D   1 1.00       0.000000000000
      0.5500000000D+00  0.1000000000D+01
 ****
     11 0
 S   3 1.00       0.000000000000
      0.1301000000D+02  0.3349872639D-01
      0.1962000000D+01  0.2348008012D+00
      0.4446000000D+00  0.8136829579D+00
 S   1 1.00       0.000000000000
      0.1220000000D+00  0.1000000000D+01
 P   1 1.00       0.000000000000
      0.7270000000D+00  0.1000000000D+01
 ****
     12 0
 S   3 1.00       0.000000000000
      0.1301000000D+02  0.3349872639D-01
      0.1962000000D+01  0.2348008012D+00
      0.4446000000D+00  0.8136829579D+00
 S   1 1.00       0.000000000000
      0.1220000000D+00  0.1000000000D+01
 P   1 1.00       0.000000000000
      0.7270000000D+00  0.1000000000D+01
 ****
     13 0
 S   3 1.00       0.000000000000
      0.1301000000D+02  0.3349872639D-01
      0.1962000000D+01  0.2348008012D+00
      0.4446000000D+00  0.8136829579D+00
 S   1 1.00       0.000000000000
      0.1220000000D+00  0.1000000000D+01
 P   1 1.00       0.000000000000
      0.7270000000D+00  0.1000000000D+01
 ****
     14 0
 S   3 1.00       0.000000000000
      0.1301000000D+02  0.3349872639D-01
      0.1962000000D+01  0.2348008012D+00
      0.4446000000D+00  0.8136829579D+00
 S   1 1.00       0.000000000000
      0.1220000000D+00  0.1000000000D+01
 P   1 1.00       0.000000000000
      0.7270000000D+00  0.1000000000D+01
 ****
     15 0
 S   3 1.00       0.000000000000
      0.1301000000D+02  0.3349872639D-01
      0.1962000000D+01  0.2348008012D+00
      0.4446000000D+00  0.8136829579D+00
 S   1 1.00       0.000000000000
      0.1220000000D+00  0.1000000000D+01
 P   1 1.00       0.000000000000
      0.7270000000D+00  0.1000000000D+01
 ****
     16 0
 S   3 1.00       0.000000000000
      0.1301000000D+02  0.3349872639D-01
      0.1962000000D+01  0.2348008012D+00
      0.4446000000D+00  0.8136829579D+00
 S   1 1.00       0.000000000000
      0.1220000000D+00  0.1000000000D+01
 P   1 1.00       0.000000000000
      0.7270000000D+00  0.1000000000D+01
 ****
     17 0
 S   3 1.00       0.000000000000
      0.1301000000D+02  0.3349872639D-01
      0.1962000000D+01  0.2348008012D+00
      0.4446000000D+00  0.8136829579D+00
 S   1 1.00       0.000000000000
      0.1220000000D+00  0.1000000000D+01
 P   1 1.00       0.000000000000
      0.7270000000D+00  0.1000000000D+01
 ****
     18 0
 S   3 1.00       0.000000000000
      0.1301000000D+02  0.3349872639D-01
      0.1962000000D+01  0.2348008012D+00
      0.4446000000D+00  0.8136829579D+00
 S   1 1.00       0.000000000000
      0.1220000000D+00  0.1000000000D+01
 P   1 1.00       0.000000000000
      0.7270000000D+00  0.1000000000D+01
 ****
     19 0
 S   3 1.00       0.000000000000
      0.1301000000D+02  0.3349872639D-01
      0.1962000000D+01  0.2348008012D+00
      0.4446000000D+00  0.8136829579D+00
 S   1 1.00       0.000000000000
      0.1220000000D+00  0.1000000000D+01
 P   1 1.00       0.000000000000
      0.7270000000D+00  0.1000000000D+01
 ****
     20 0
 S   3 1.00       0.000000000000
      0.1301000000D+02  0.3349872639D-01
      0.1962000000D+01  0.2348008012D+00
      0.4446000000D+00  0.8136829579D+00
 S   1 1.00       0.000000000000
      0.1220000000D+00  0.1000000000D+01
 P   1 1.00       0.000000000000
      0.7270000000D+00  0.1000000000D+01
 ****
     21 0
 S   3 1.00       0.000000000000
      0.1301000000D+02  0.3349872639D-01
      0.1962000000D+01  0.2348008012D+00
      0.4446000000D+00  0.8136829579D+00
 S   1 1.00       0.000000000000
      0.1220000000D+00  0.1000000000D+01
 P   1 1.00       0.000000000000
      0.7270000000D+00  0.1000000000D+01
 ****
     22 0
 S   3 1.00       0.000000000000
      0.1301000000D+02  0.3349872639D-01
      0.1962000000D+01  0.2348008012D+00
      0.4446000000D+00  0.8136829579D+00
 S   1 1.00       0.000000000000
      0.1220000000D+00  0.1000000000D+01
 P   1 1.00       0.000000000000
      0.7270000000D+00  0.1000000000D+01
 ****
     23 0
 S   7 1.00       0.000000000000
      0.6665000000D+04  0.6935163173D-03
      0.1000000000D+04  0.5341502433D-02
      0.2280000000D+03  0.2713667141D-01
      0.6471000000D+02  0.1019923853D+00
      0.2106000000D+02  0.2755086365D+00
      0.7495000000D+01  0.4510864331D+00
      0.2797000000D+01  0.2875657448D+00
 S   7 1.00       0.000000000000
      0.6665000000D+04  0.7733547404D-05
      0.2280000000D+03  0.2780721367D-03
      0.6471000000D+02 -0.2578756542D-02
      0.2106000000D+02 -0.8950876838D-02
      0.7495000000D+01 -0.1060588547D+00
      0.2797000000D+01 -0.1315176856D+00
      0.5215000000D+00  0.1099486598D+01
 S   1 1.00       0.000000000000
      0.1596000000D+00  0.1000000000D+01
 P   3 1.00       0.000000000000
      0.9439000000D+01  0.5697925159D-01
      0.2002000000D+01  0.3132072115D+00
      0.5456000000D+00  0.7603767417D+00
 P   1 1.00       0.000000000000
      0.1517000000D+00  0.1000000000D+01
 D   1 1.00       0.000000000000
      0.5500000000D+00  0.1000000000D+01
 ****
     24 0
 S   7 1.00       0.000000000000
      0.6665000000D+04  0.6935163173D-03
      0.1000000000D+04  0.5341502433D-02
      0.2280000000D+03  0.2713667141D-01
      0.6471000000D+02  0.1019923853D+00
      0.2106000000D+02  0.2755086365D+00
      0.7495000000D+01  0.4510864331D+00
      0.2797000000D+01  0.2875657448D+00
 S   7 1.00       0.000000000000
      0.6665000000D+04  0.7733547404D-05
      0.2280000000D+03  0.2780721367D-03
      0.6471000000D+02 -0.2578756542D-02
      0.2106000000D+02 -0.8950876838D-02
      0.7495000000D+01 -0.1060588547D+00
      0.2797000000D+01 -0.1315176856D+00
      0.5215000000D+00  0.1099486598D+01
 S   1 1.00       0.000000000000
      0.1596000000D+00  0.1000000000D+01
 P   3 1.00       0.000000000000
      0.9439000000D+01  0.5697925159D-01
      0.2002000000D+01  0.3132072115D+00
      0.5456000000D+00  0.7603767417D+00
 P   1 1.00       0.000000000000
      0.1517000000D+00  0.1000000000D+01
 D   1 1.00       0.000000000000
      0.5500000000D+00  0.1000000000D+01
 ****
     25 0
 S   7 1.00       0.000000000000
      0.6665000000D+04  0.6935163173D-03
      0.1000000000D+04  0.5341502433D-02
      0.2280000000D+03  0.2713667141D-01
      0.6471000000D+02  0.1019923853D+00
      0.2106000000D+02  0.2755086365D+00
      0.7495000000D+01  0.4510864331D+00
      0.2797000000D+01  0.2875657448D+00
 S   7 1.00       0.000000000000
      0.6665000000D+04  0.7733547404D-05
      0.2280000000D+03  0.2780721367D-03
      0.6471000000D+02 -0.2578756542D-02
      0.2106000000D+02 -0.8950876838D-02
      0.7495000000D+01 -0.1060588547D+00
      0.2797000000D+01 -0.1315176856D+00
      0.5215000000D+00  0.1099486598D+01
 S   1 1.00       0.000000000000
      0.1596000000D+00  0.1000000000D+01
 P   3 1.00       0.000000000000
      0.9439000000D+01  0.5697925159D-01
      0.2002000000D+01  0.3132072115D+00
      0.5456000000D+00  0.7603767417D+00
 P   1 1.00       0.000000000000
      0.1517000000D+00  0.1000000000D+01
 D   1 1.00       0.000000000000
      0.5500000000D+00  0.1000000000D+01
 ****
     26 0
 S   7 1.00       0.000000000000
      0.6665000000D+04  0.6935163173D-03
      0.1000000000D+04  0.5341502433D-02
      0.2280000000D+03  0.2713667141D-01
      0.6471000000D+02  0.1019923853D+00
      0.2106000000D+02  0.2755086365D+00
      0.7495000000D+01  0.4510864331D+00
      0.2797000000D+01  0.2875657448D+00
 S   7 1.00       0.000000000000
      0.6665000000D+04  0.7733547404D-05
      0.2280000000D+03  0.2780721367D-03
      0.6471000000D+02 -0.2578756542D-02
      0.2106000000D+02 -0.8950876838D-02
      0.7495000000D+01 -0.1060588547D+00
      0.2797000000D+01 -0.1315176856D+00
      0.5215000000D+00  0.1099486598D+01
 S   1 1.00       0.000000000000
      0.1596000000D+00  0.1000000000D+01
 P   3 1.00       0.000000000000
      0.9439000000D+01  0.5697925159D-01
      0.2002000000D+01  0.3132072115D+00
      0.5456000000D+00  0.7603767417D+00
 P   1 1.00       0.000000000000
      0.1517000000D+00  0.1000000000D+01
 D   1 1.00       0.000000000000
      0.5500000000D+00  0.1000000000D+01
 ****
     27 0
 S   7 1.00       0.000000000000
      0.6665000000D+04  0.6935163173D-03
      0.1000000000D+04  0.5341502433D-02
      0.2280000000D+03  0.2713667141D-01
      0.6471000000D+02  0.1019923853D+00
      0.2106000000D+02  0.2755086365D+00
      0.7495000000D+01  0.4510864331D+00
      0.2797000000D+01  0.2875657448D+00
 S   7 1.00       0.000000000000
      0.6665000000D+04  0.7733547404D-05
      0.2280000000D+03  0.2780721367D-03
      0.6471000000D+02 -0.2578756542D-02
      0.2106000000D+02 -0.8950876838D-02
      0.7495000000D+01 -0.1060588547D+00
      0.2797000000D+01 -0.1315176856D+00
      0.5215000000D+00  0.1099486598D+01
 S   1 1.00       0.000000000000
      0.1596000000D+00  0.1000000000D+01
 P   3 1.00       0.000000000000
      0.9439000000D+01  0.5697925159D-01
      0.2002000000D+01  0.3132072115D+00
      0.5456000000D+00  0.7603767417D+00
 P   1 1.00       0.000000000000
      0.1517000000D+00  0.1000000000D+01
 D   1 1.00       0.000000000000
      0.5500000000D+00  0.1000000000D+01
 ****
     28 0
 S   7 1.00       0.000000000000
      0.6665000000D+04  0.6935163173D-03
      0.1000000000D+04  0.5341502433D-02
      0.2280000000D+03  0.2713667141D-01
      0.6471000000D+02  0.1019923853D+00
      0.2106000000D+02  0.2755086365D+00
      0.7495000000D+01  0.4510864331D+00
      0.2797000000D+01  0.2875657448D+00
 S   7 1.00       0.000000000000
      0.6665000000D+04  0.7733547404D-05
      0.2280000000D+03  0.2780721367D-03
      0.6471000000D+02 -0.2578756542D-02
      0.2106000000D+02 -0.8950876838D-02
      0.7495000000D+01 -0.1060588547D+00
      0.2797000000D+01 -0.1315176856D+00
      0.5215000000D+00  0.1099486598D+01
 S   1 1.00       0.000000000000
      0.1596000000D+00  0.1000000000D+01
 P   3 1.00       0.000000000000
      0.9439000000D+01  0.5697925159D-01
      0.2002000000D+01  0.3132072115D+00
      0.5456000000D+00  0.7603767417D+00
 P   1 1.00       0.000000000000
      0.1517000000D+00  0.1000000000D+01
 D   1 1.00       0.000000000000
      0.5500000000D+00  0.1000000000D+01
 ****
     29 0
 S   7 1.00       0.000000000000
      0.6665000000D+04  0.6935163173D-03
      0.1000000000D+04  0.5341502433D-02
      0.2280000000D+03  0.2713667141D-01
      0.6471000000D+02  0.1019923853D+00
      0.2106000000D+02  0.2755086365D+00
      0.7495000000D+01  0.4510864331D+00
      0.2797000000D+01  0.2875657448D+00
 S   7 1.00       0.000000000000
      0.6665000000D+04  0.7733547404D-05
      0.2280000000D+03  0.2780721367D-03
      0.6471000000D+02 -0.2578756542D-02
      0.2106000000D+02 -0.8950876838D-02
      0.7495000000D+01 -0.1060588547D+00
      0.2797000000D+01 -0.1315176856D+00
      0.5215000000D+00  0.1099486598D+01
 S   1 1.00       0.000000000000
      0.1596000000D+00  0.1000000000D+01
 P   3 1.00       0.000000000000
      0.9439000000D+01  0.5697925159D-01
      0.2002000000D+01  0.3132072115D+00
      0.5456000000D+00  0.7603767417D+00
 P   1 1.00       0.000000000000
      0.1517000000D+00  0.1000000000D+01
 D   1 1.00       0.000000000000
      0.5500000000D+00  0.1000000000D+01
 ****
     30 0
 S   7 1.00       0.000000000000
      0.6665000000D+04  0.6935163173D-03
      0.1000000000D+04  0.5341502433D-02
      0.2280000000D+03  0.2713667141D-01
      0.6471000000D+02  0.1019923853D+00
      0.2106000000D+02  0.2755086365D+00
      0.7495000000D+01  0.4510864331D+00
      0.2797000000D+01  0.2875657448D+00
 S   7 1.00       0.000000000000
      0.6665000000D+04  0.7733547404D-05
      0.2280000000D+03  0.2780721367D-03
      0.6471000000D+02 -0.2578756542D-02
      0.2106000000D+02 -0.8950876838D-02
      0.7495000000D+01 -0.1060588547D+00
      0.2797000000D+01 -0.1315176856D+00
      0.5215000000D+00  0.1099486598D+01
 S   1 1.00       0.000000000000
      0.1596000000D+00  0.1000000000D+01
 P   3 1.00       0.000000000000
      0.9439000000D+01  0.5697925159D-01
      0.2002000000D+01  0.3132072115D+00
      0.5456000000D+00  0.7603767417D+00
 P   1 1.00       0.000000000000
      0.1517000000D+00  0.1000000000D+01
 D   1 1.00       0.000000000000
      0.5500000000D+00  0.1000000000D+01
 ****
     31 0
 S   7 1.00       0.000000000000
      0.6665000000D+04  0.6935163173D-03
      0.1000000000D+04  0.5341502433D-02
      0.2280000000D+03  0.2713667141D-01
      0.6471000000D+02  0.1019923853D+00
      0.2106000000D+02  0.2755086365D+00
      0.7495000000D+01  0.4510864331D+00
      0.2797000000D+01  0.2875657448D+00
 S   7 1.00       0.000000000000
      0.6665000000D+04  0.7733547404D-05
      0.2280000000D+03  0.2780721367D-03
      0.6471000000D+02 -0.2578756542D-02
      0.2106000000D+02 -0.8950876838D-02
      0.7495000000D+01 -0.1060588547D+00
      0.2797000000D+01 -0.1315176856D+00
      0.5215000000D+00  0.1099486598D+01
 S   1 1.00       0.000000000000
      0.1596000000D+00  0.1000000000D+01
 P   3 1.00       0.000000000000
      0.9439000000D+01  0.5697925159D-01
      0.2002000000D+01  0.3132072115D+00
      0.5456000000D+00  0.7603767417D+00
 P   1 1.00       0.000000000000
      0.1517000000D+00  0.1000000000D+01
 D   1 1.00       0.000000000000
      0.5500000000D+00  0.1000000000D+01
 ****
     32 0
 S   7 1.00       0.000000000000
      0.6665000000D+04  0.6935163173D-03
      0.1000000000D+04  0.5341502433D-02
      0.2280000000D+03  0.2713667141D-01
      0.6471000000D+02  0.1019923853D+00
      0.2106000000D+02  0.2755086365D+00
      0.7495000000D+01  0.4510864331D+00
      0.2797000000D+01  0.2875657448D+00
 S   7 1.00       0.000000000000
      0.6665000000D+04  0.7733547404D-05
      0.2280000000D+03  0.2780721367D-03
      0.6471000000D+02 -0.2578756542D-02
      0.2106000000D+02 -0.8950876838D-02
      0.7495000000D+01 -0.1060588547D+00
      0.2797000000D+01 -0.1315176856D+00
      0.5215000000D+00  0.1099486598D+01
 S   1 1.00       0.000000000000
      0.1596000000D+00  0.1000000000D+01
 P   3 1.00       0.000000000000
      0.9439000000D+01  0.5697925159D-01
      0.2002000000D+01  0.3132072115D+00
      0.5456000000D+00  0.7603767417D+00
 P   1 1.00       0.000000000000
      0.1517000000D+00  0.1000000000D+01
 D   1 1.00       0.000000000000
      0.5500000000D+00  0.1000000000D+01
 ****
     33 0
 S   3 1.00       0.000000000000
      0.1301000000D+02  0.3349872639D-01
      0.1962000000D+01  0.2348008012D+00
      0.4446000000D+00  0.8136829579D+00
 S   1 1.00       0.000000000000
      0.1220000000D+00  0.1000000000D+01
 P   1 1.00       0.000000000000
      0.7270000000D+00  0.1000000000D+01
 ****
     34 0
 S   3 1.00       0.000000000000
      0.1301000000D+02  0.3349872639D-01
      0.1962000000D+01  0.2348008012D+00
      0.4446000000D+00  0.8136829579D+00
 S   1 1.00       0.000000000000
      0.1220000000D+00  0.1000000000D+01
 P   1 1.00       0.000000000000
      0.7270000000D+00  0.1000000000D+01
 ****
     35 0
 S   3 1.00       0.000000000000
      0.1301000000D+02  0.3349872639D-01
      0.1962000000D+01  0.2348008012D+00
      0.4446000000D+00  0.8136829579D+00
 S   1 1.00       0.000000000000
      0.1220000000D+00  0.1000000000D+01
 P   1 1.00       0.000000000000
      0.7270000000D+00  0.1000000000D+01
 ****
     36 0
 S   3 1.00       0.000000000000
      0.1301000000D+02  0.3349872639D-01
      0.1962000000D+01  0.2348008012D+00
      0.4446000000D+00  0.8136829579D+00
 S   1 1.00       0.000000000000
      0.1220000000D+00  0.1000000000D+01
 P   1 1.00       0.000000000000
      0.7270000000D+00  0.1000000000D+01
 ****
     37 0
 S   3 1.00       0.000000000000
      0.1301000000D+02  0.3349872639D-01
      0.1962000000D+01  0.2348008012D+00
      0.4446000000D+00  0.8136829579D+00
 S   1 1.00       0.000000000000
      0.1220000000D+00  0.1000000000D+01
 P   1 1.00       0.000000000000
      0.7270000000D+00  0.1000000000D+01
 ****
     38 0
 S   3 1.00       0.000000000000
      0.1301000000D+02  0.3349872639D-01
      0.1962000000D+01  0.2348008012D+00
      0.4446000000D+00  0.8136829579D+00
 S   1 1.00       0.000000000000
      0.1220000000D+00  0.1000000000D+01
 P   1 1.00       0.000000000000
      0.7270000000D+00  0.1000000000D+01
 ****
     39 0
 S   3 1.00       0.000000000000
      0.1301000000D+02  0.3349872639D-01
      0.1962000000D+01  0.2348008012D+00
      0.4446000000D+00  0.8136829579D+00
 S   1 1.00       0.000000000000
      0.1220000000D+00  0.1000000000D+01
 P   1 1.00       0.000000000000
      0.7270000000D+00  0.1000000000D+01
 ****
     40 0
 S   3 1.00       0.000000000000
      0.1301000000D+02  0.3349872639D-01
      0.1962000000D+01  0.2348008012D+00
      0.4446000000D+00  0.8136829579D+00
 S   1 1.00       0.000000000000
      0.1220000000D+00  0.1000000000D+01
 P   1 1.00       0.000000000000
      0.7270000000D+00  0.1000000000D+01
 ****
     41 0
 S   3 1.00       0.000000000000
      0.1301000000D+02  0.3349872639D-01
      0.1962000000D+01  0.2348008012D+00
      0.4446000000D+00  0.8136829579D+00
 S   1 1.00       0.000000000000
      0.1220000000D+00  0.1000000000D+01
 P   1 1.00       0.000000000000
      0.7270000000D+00  0.1000000000D+01
 ****
     42 0
 S   3 1.00       0.000000000000
      0.1301000000D+02  0.3349872639D-01
      0.1962000000D+01  0.2348008012D+00
      0.4446000000D+00  0.8136829579D+00
 S   1 1.00       0.000000000000
      0.1220000000D+00  0.1000000000D+01
 P   1 1.00       0.000000000000
      0.7270000000D+00  0.1000000000D+01
 ****
     43 0
 S   3 1.00       0.000000000000
      0.1301000000D+02  0.3349872639D-01
      0.1962000000D+01  0.2348008012D+00
      0.4446000000D+00  0.8136829579D+00
 S   1 1.00       0.000000000000
      0.1220000000D+00  0.1000000000D+01
 P   1 1.00       0.000000000000
      0.7270000000D+00  0.1000000000D+01
 ****
     44 0
 S   3 1.00       0.000000000000
      0.1301000000D+02  0.3349872639D-01
      0.1962000000D+01  0.2348008012D+00
      0.4446000000D+00  0.8136829579D+00
 S   1 1.00       0.000000000000
      0.1220000000D+00  0.1000000000D+01
 P   1 1.00       0.000000000000
      0.7270000000D+00  0.1000000000D+01
 ****

   400 basis functions,   828 primitive gaussians,   420 cartesian basis functions
    72 alpha electrons       72 beta electrons
       nuclear repulsion energy      1509.9894289079 Hartrees.
 IExCor= 1009 DFT=T Ex=PBE Corr=PBE ExCW=0 ScaHFX=  0.000000
 ScaDFX=  1.000000  1.000000  1.000000  1.000000 ScalE2=  1.000000  1.000000
 IRadAn=      5 IRanWt=     -1 IRanGd=            0 ICorTp=0 IEmpDi=141
 NAtoms=   44 NActive=   44 NUniq=   44 SFac= 1.00D+00 NAtFMM=   60 NAOKFM=F Big=F
 Integral buffers will be    131072 words long.
 Raffenetti 2 integral format.
 Two-electron integral symmetry is turned off.
 R6Disp:  Grimme-D3(BJ) Dispersion energy=       -0.0610842975 Hartrees.
 Nuclear repulsion after empirical dispersion term =     1509.9283446104 Hartrees.
 Leave Link  301 at Thu Jul  2 22:48:00 2020, MaxMem= 16642998272 cpu:         1.4
 (Enter /home/fuchs/agschreiner/public/bin/gaussian09-E.01/g09/l302.exe)
 NPDir=0 NMtPBC=     1 NCelOv=     1 NCel=       1 NClECP=     1 NCelD=      1
         NCelK=      1 NCelE2=     1 NClLst=     1 CellRange=     0.0.
 One-electron integrals computed using PRISM.
 NBasis=   400 RedAO= T EigKep=  2.79D-03  NBF=   400
 NBsUse=   400 1.00D-06 EigRej= -1.00D+00 NBFU=   400
 Precomputing XC quadrature grid using
 IXCGrd= 4 IRadAn=           5 IRanWt=          -1 IRanGd=           0 AccXCQ= 0.00D+00.
 Generated NRdTot=       0 NPtTot=           0 NUsed=           0 NTot=          32
 NSgBfM=   418   418   418   418   418 MxSgAt=    44 MxSgA2=    44.
 Leave Link  302 at Thu Jul  2 22:48:01 2020, MaxMem= 16642998272 cpu:        13.9
 (Enter /home/fuchs/agschreiner/public/bin/gaussian09-E.01/g09/l303.exe)
 DipDrv:  MaxL=1.
 Leave Link  303 at Thu Jul  2 22:48:02 2020, MaxMem= 16642998272 cpu:         2.4
 (Enter /home/fuchs/agschreiner/public/bin/gaussian09-E.01/g09/l401.exe)
 ExpMin= 1.22D-01 ExpMax= 6.67D+03 ExpMxC= 2.28D+02 IAcc=3 IRadAn=         5 AccDes= 0.00D+00
 Harris functional with IExCor= 1009 and IRadAn=       5 diagonalized for initial guess.
 HarFok:  IExCor= 1009 AccDes= 0.00D+00 IRadAn=         5 IDoV= 1 UseB2=F ITyADJ=14
 ICtDFT=  3500011 ScaDFX=  1.000000  1.000000  1.000000  1.000000
 FoFCou: FMM=F IPFlag=           0 FMFlag=      100000 FMFlg1=           0
         NFxFlg=           0 DoJE=T BraDBF=F KetDBF=T FulRan=T
         wScrn=  0.000000 ICntrl=     500 IOpCl=  0 I1Cent=   200000004 NGrid=           0
         NMat0=    1 NMatS0=      1 NMatT0=    0 NMatD0=    1 NMtDS0=    0 NMtDT0=    0
 Symmetry not used in FoFCou.
 Harris En= -775.381734431324    
 JPrj=0 DoOrth=F DoCkMO=F.
 Leave Link  401 at Thu Jul  2 22:48:04 2020, MaxMem= 16642998272 cpu:        50.2
 (Enter /home/fuchs/agschreiner/public/bin/gaussian09-E.01/g09/l502.exe)
 Closed shell SCF:
 Using DIIS extrapolation, IDIIS=  1040.
 Two-electron integral symmetry not used.
 Keep J ints in memory in canonical form, NReq=3253927878.
 IVT=      558758 IEndB=      558758 NGot= 16642998272 MDV= 13426379415
 LenX= 13426379415 LenY= 13426202574
 Requested convergence on RMS density matrix=1.00D-08 within 128 cycles.
 Requested convergence on MAX density matrix=1.00D-06.
 Requested convergence on             energy=1.00D-06.
 No special actions if energy rises.
 FoFCou: FMM=F IPFlag=           0 FMFlag=           0 FMFlg1=           0
         NFxFlg=           0 DoJE=F BraDBF=F KetDBF=F FulRan=T
         wScrn=  0.000000 ICntrl=     600 IOpCl=  0 I1Cent=           0 NGrid=           0
         NMat0=    1 NMatS0=  80200 NMatT0=    0 NMatD0=    1 NMtDS0=    0 NMtDT0=    0
 Symmetry not used in FoFCou.
 Integral accuracy reduced to 1.0D-05 until final iterations.

 Cycle   1  Pass 0  IDiag  1:
 E= -774.696696224165    
 DIIS: error= 2.81D-02 at cycle   1 NSaved=   1.
 NSaved= 1 IEnMin= 1 EnMin= -774.696696224165     IErMin= 1 ErrMin= 2.81D-02
 ErrMax= 2.81D-02  0.00D+00 EMaxC= 1.00D-01 BMatC= 3.59D-01 BMatP= 3.59D-01
 IDIUse=3 WtCom= 7.19D-01 WtEn= 2.81D-01
 Coeff-Com:  0.100D+01
 Coeff-En:   0.100D+01
 Coeff:      0.100D+01
 Gap=    -0.070 Goal=   None    Shift=    0.000
 GapD=   -0.070 DampG=0.250 DampE=0.500 DampFc=0.2500 IDamp=-1.
 Damping current iteration by 2.50D-01
 RMSDP=6.00D-03 MaxDP=2.59D-01              OVMax= 9.20D-01

 Cycle   2  Pass 0  IDiag  1:
 E= -774.845709403701     Delta-E=       -0.149013179535 Rises=F Damp=T
 DIIS: error= 1.23D-02 at cycle   2 NSaved=   2.
 NSaved= 2 IEnMin= 2 EnMin= -774.845709403701     IErMin= 2 ErrMin= 1.23D-02
 ErrMax= 1.23D-02  0.00D+00 EMaxC= 1.00D-01 BMatC= 6.13D-02 BMatP= 3.59D-01
 IDIUse=3 WtCom= 8.77D-01 WtEn= 1.23D-01
 Coeff-Com: -0.165D+00 0.116D+01
 Coeff-En:   0.132D+00 0.868D+00
 Coeff:     -0.128D+00 0.113D+01
 Gap=     0.004 Goal=   None    Shift=    0.000
 RMSDP=3.46D-03 MaxDP=1.43D-01 DE=-1.49D-01 OVMax= 9.43D-01

 Cycle   3  Pass 0  IDiag  1:
 E= -774.091122584061     Delta-E=        0.754586819639 Rises=F Damp=F
 DIIS: error= 2.95D-02 at cycle   3 NSaved=   3.
 NSaved= 3 IEnMin= 2 EnMin= -774.845709403701     IErMin= 2 ErrMin= 1.23D-02
 ErrMax= 2.95D-02  0.00D+00 EMaxC= 1.00D-01 BMatC= 7.62D-01 BMatP= 6.13D-02
 IDIUse=2 WtCom= 0.00D+00 WtEn= 1.00D+00
 Coeff-En:   0.000D+00 0.808D+00 0.192D+00
 Coeff:      0.000D+00 0.808D+00 0.192D+00
 Gap=    -0.029 Goal=   None    Shift=    0.000
 RMSDP=4.82D-03 MaxDP=2.65D-01 DE= 7.55D-01 OVMax= 9.80D-01

 Cycle   4  Pass 0  IDiag  1:
 E= -774.395219092906     Delta-E=       -0.304096508845 Rises=F Damp=F
 DIIS: error= 2.89D-02 at cycle   4 NSaved=   4.
 NSaved= 4 IEnMin= 2 EnMin= -774.845709403701     IErMin= 2 ErrMin= 1.23D-02
 ErrMax= 2.89D-02  0.00D+00 EMaxC= 1.00D-01 BMatC= 5.26D-01 BMatP= 6.13D-02
 IDIUse=2 WtCom= 0.00D+00 WtEn= 1.00D+00
 EnCoef did     3 forward-backward iterations
 Coeff-En:   0.133D+00 0.000D+00 0.375D+00 0.492D+00
 Coeff:      0.133D+00 0.000D+00 0.375D+00 0.492D+00
 Gap=    -0.011 Goal=   None    Shift=    0.000
 RMSDP=4.00D-03 MaxDP=1.96D-01 DE=-3.04D-01 OVMax= 9.43D-01

 Cycle   5  Pass 0  IDiag  1:
 E= -774.756695037258     Delta-E=       -0.361475944351 Rises=F Damp=F
 DIIS: error= 2.20D-02 at cycle   5 NSaved=   5.
 NSaved= 5 IEnMin= 2 EnMin= -774.845709403701     IErMin= 2 ErrMin= 1.23D-02
 ErrMax= 2.20D-02  0.00D+00 EMaxC= 1.00D-01 BMatC= 2.48D-01 BMatP= 6.13D-02
 IDIUse=2 WtCom= 0.00D+00 WtEn= 1.00D+00
 EnCoef did     5 forward-backward iterations
 Coeff-En:   0.530D-01 0.000D+00 0.323D+00 0.430D+00 0.194D+00
 Coeff:      0.530D-01 0.000D+00 0.323D+00 0.430D+00 0.194D+00
 Gap=    -0.023 Goal=   None    Shift=    0.000
 RMSDP=4.26D-03 MaxDP=2.12D-01 DE=-3.61D-01 OVMax= 9.89D-01

 Cycle   6  Pass 0  IDiag  1:
 E= -774.558164426883     Delta-E=        0.198530610375 Rises=F Damp=F
 DIIS: error= 3.35D-02 at cycle   6 NSaved=   6.
 NSaved= 6 IEnMin= 2 EnMin= -774.845709403701     IErMin= 2 ErrMin= 1.23D-02
 ErrMax= 3.35D-02  0.00D+00 EMaxC= 1.00D-01 BMatC= 4.04D-01 BMatP= 6.13D-02
 IDIUse=2 WtCom= 0.00D+00 WtEn= 1.00D+00
 EnCoef did    20 forward-backward iterations
 Coeff-En:   0.000D+00 0.000D+00 0.105D+00 0.208D+00 0.397D+00 0.290D+00
 Coeff:      0.000D+00 0.000D+00 0.105D+00 0.208D+00 0.397D+00 0.290D+00
 Gap=    -0.027 Goal=   None    Shift=    0.000
 RMSDP=4.17D-03 MaxDP=2.16D-01 DE= 1.99D-01 OVMax= 9.54D-01

 Cycle   7  Pass 0  IDiag  1:
 E= -774.606767232117     Delta-E=       -0.048602805234 Rises=F Damp=F
 DIIS: error= 1.96D-02 at cycle   7 NSaved=   7.
 NSaved= 7 IEnMin= 2 EnMin= -774.845709403701     IErMin= 2 ErrMin= 1.23D-02
 ErrMax= 1.96D-02  0.00D+00 EMaxC= 1.00D-01 BMatC= 3.63D-01 BMatP= 6.13D-02
 IDIUse=2 WtCom= 0.00D+00 WtEn= 1.00D+00
 EnCoef did     2 forward-backward iterations
 Coeff-En:   0.000D+00 0.000D+00 0.000D+00 0.846D-01 0.435D+00 0.315D+00
 Coeff-En:   0.166D+00
 Coeff:      0.000D+00 0.000D+00 0.000D+00 0.846D-01 0.435D+00 0.315D+00
 Coeff:      0.166D+00
 Gap=    -0.009 Goal=   None    Shift=    0.000
 RMSDP=4.28D-03 MaxDP=2.30D-01 DE=-4.86D-02 OVMax= 9.85D-01

 Cycle   8  Pass 0  IDiag  1:
 E= -774.849984933263     Delta-E=       -0.243217701146 Rises=F Damp=F
 DIIS: error= 1.85D-02 at cycle   8 NSaved=   8.
 NSaved= 8 IEnMin= 8 EnMin= -774.849984933263     IErMin= 2 ErrMin= 1.23D-02
 ErrMax= 1.85D-02  0.00D+00 EMaxC= 1.00D-01 BMatC= 1.84D-01 BMatP= 6.13D-02
 IDIUse=2 WtCom= 0.00D+00 WtEn= 1.00D+00
 EnCoef did    12 forward-backward iterations
 Coeff-En:   0.000D+00 0.000D+00 0.000D+00 0.275D-01 0.342D+00 0.197D+00
 Coeff-En:   0.222D+00 0.211D+00
 Coeff:      0.000D+00 0.000D+00 0.000D+00 0.275D-01 0.342D+00 0.197D+00
 Coeff:      0.222D+00 0.211D+00
 Gap=    -0.012 Goal=   None    Shift=    0.000
 RMSDP=4.15D-03 MaxDP=2.50D-01 DE=-2.43D-01 OVMax= 9.95D-01

 Cycle   9  Pass 0  IDiag  1:
 E= -774.730886854880     Delta-E=        0.119098078382 Rises=F Damp=F
 DIIS: error= 2.06D-02 at cycle   9 NSaved=   9.
 NSaved= 9 IEnMin= 8 EnMin= -774.849984933263     IErMin= 2 ErrMin= 1.23D-02
 ErrMax= 2.06D-02  0.00D+00 EMaxC= 1.00D-01 BMatC= 2.67D-01 BMatP= 6.13D-02
 IDIUse=2 WtCom= 0.00D+00 WtEn= 1.00D+00
 EnCoef did    15 forward-backward iterations
 Coeff-En:   0.000D+00 0.000D+00 0.000D+00 0.000D+00 0.215D+00 0.453D-01
 Coeff-En:   0.253D+00 0.323D+00 0.164D+00
 Coeff:      0.000D+00 0.000D+00 0.000D+00 0.000D+00 0.215D+00 0.453D-01
 Coeff:      0.253D+00 0.323D+00 0.164D+00
 Gap=    -0.010 Goal=   None    Shift=    0.000
 RMSDP=4.09D-03 MaxDP=2.44D-01 DE= 1.19D-01 OVMax= 9.89D-01

 Cycle  10  Pass 0  IDiag  1:
 E= -774.414702315576     Delta-E=        0.316184539305 Rises=F Damp=F
 DIIS: error= 2.57D-02 at cycle  10 NSaved=  10.
 NSaved=10 IEnMin= 8 EnMin= -774.849984933263     IErMin= 2 ErrMin= 1.23D-02
 ErrMax= 2.57D-02  0.00D+00 EMaxC= 1.00D-01 BMatC= 2.98D-01 BMatP= 6.13D-02
 IDIUse=2 WtCom= 0.00D+00 WtEn= 1.00D+00
 EnCoef did    12 forward-backward iterations
 Coeff-En:   0.000D+00 0.000D+00 0.000D+00 0.000D+00 0.195D+00 0.219D-01
 Coeff-En:   0.243D+00 0.321D+00 0.178D+00 0.408D-01
 Coeff:      0.000D+00 0.000D+00 0.000D+00 0.000D+00 0.195D+00 0.219D-01
 Coeff:      0.243D+00 0.321D+00 0.178D+00 0.408D-01
 Gap=    -0.015 Goal=   None    Shift=    0.000
 RMSDP=4.07D-03 MaxDP=2.13D-01 DE= 3.16D-01 OVMax= 9.93D-01

 Problem detected with inexpensive integrals.
 Switching to full accuracy and repeating last cycle.
 Cycle  11  Pass 1  IDiag  1:
 E= -774.414745062128     Delta-E=       -0.000042746552 Rises=F Damp=F
 DIIS: error= 2.58D-02 at cycle   1 NSaved=   1.
 NSaved= 1 IEnMin= 1 EnMin= -774.414745062128     IErMin= 1 ErrMin= 2.58D-02
 ErrMax= 2.58D-02  0.00D+00 EMaxC= 1.00D-01 BMatC= 2.98D-01 BMatP= 2.98D-01
 IDIUse=3 WtCom= 7.42D-01 WtEn= 2.58D-01
 Coeff-Com:  0.100D+01
 Coeff-En:   0.100D+01
 Coeff:      0.100D+01
 Gap=    -0.473 Goal=   None    Shift=    0.000
 GapD=   -0.473 DampG=0.250 DampE=0.500 DampFc=0.2500 IDamp=-1.
 Damping current iteration by 2.50D-01
 RMSDP=4.15D-02 MaxDP=3.85D+00 DE=-4.27D-05 OVMax= 9.79D-01

 Cycle  12  Pass 1  IDiag  1:
 E= -771.420576834445     Delta-E=        2.994168227683 Rises=F Damp=T
 DIIS: error= 5.08D-02 at cycle   2 NSaved=   2.
 NSaved= 2 IEnMin= 1 EnMin= -774.414745062128     IErMin= 1 ErrMin= 2.58D-02
 ErrMax= 5.08D-02  0.00D+00 EMaxC= 1.00D-01 BMatC= 6.71D-01 BMatP= 2.98D-01
 IDIUse=2 WtCom= 0.00D+00 WtEn= 1.00D+00
 Coeff-En:   0.825D+00 0.175D+00
 Coeff:      0.825D+00 0.175D+00
 Gap=     0.005 Goal=   None    Shift=    0.000
 RMSDP=1.09D-02 MaxDP=9.25D-01 DE= 2.99D+00 OVMax= 9.93D-01

 Cycle  13  Pass 1  IDiag  1:
 E= -769.130456629567     Delta-E=        2.290120204878 Rises=F Damp=F
 DIIS: error= 7.22D-02 at cycle   3 NSaved=   3.
 NSaved= 3 IEnMin= 1 EnMin= -774.414745062128     IErMin= 1 ErrMin= 2.58D-02
 ErrMax= 7.22D-02  0.00D+00 EMaxC= 1.00D-01 BMatC= 2.98D+00 BMatP= 2.98D-01
 IDIUse=2 WtCom= 0.00D+00 WtEn= 1.00D+00
 Coeff-En:   0.769D+00 0.000D+00 0.231D+00
 Coeff:      0.769D+00 0.000D+00 0.231D+00
 Gap=     0.035 Goal=   None    Shift=    0.000
 RMSDP=3.61D-03 MaxDP=2.17D-01 DE= 2.29D+00 OVMax= 7.04D-01

 Cycle  14  Pass 1  IDiag  1:
 E= -774.062436144917     Delta-E=       -4.931979515350 Rises=F Damp=F
 DIIS: error= 3.04D-02 at cycle   4 NSaved=   4.
 NSaved= 4 IEnMin= 1 EnMin= -774.414745062128     IErMin= 1 ErrMin= 2.58D-02
 ErrMax= 3.04D-02  0.00D+00 EMaxC= 1.00D-01 BMatC= 4.37D-01 BMatP= 2.98D-01
 IDIUse=2 WtCom= 0.00D+00 WtEn= 1.00D+00
 Coeff-En:   0.553D+00 0.000D+00 0.000D+00 0.447D+00
 Coeff:      0.553D+00 0.000D+00 0.000D+00 0.447D+00
 Gap=    -0.048 Goal=   None    Shift=    0.000
 RMSDP=4.43D-03 MaxDP=2.11D-01 DE=-4.93D+00 OVMax= 9.58D-01

 Cycle  15  Pass 1  IDiag  1:
 E= -773.961530038917     Delta-E=        0.100906105999 Rises=F Damp=F
 DIIS: error= 3.17D-02 at cycle   5 NSaved=   5.
 NSaved= 5 IEnMin= 1 EnMin= -774.414745062128     IErMin= 1 ErrMin= 2.58D-02
 ErrMax= 3.17D-02  0.00D+00 EMaxC= 1.00D-01 BMatC= 8.59D-01 BMatP= 2.98D-01
 IDIUse=2 WtCom= 0.00D+00 WtEn= 1.00D+00
 EnCoef did     2 forward-backward iterations
 Coeff-En:   0.487D+00 0.000D+00 0.000D+00 0.388D+00 0.125D+00
 Coeff:      0.487D+00 0.000D+00 0.000D+00 0.388D+00 0.125D+00
 Gap=     0.001 Goal=   None    Shift=    0.000
 RMSDP=1.82D-03 MaxDP=1.11D-01 DE= 1.01D-01 OVMax= 3.24D-01

 Cycle  16  Pass 1  IDiag  1:
 E= -774.798009781604     Delta-E=       -0.836479742687 Rises=F Damp=F
 DIIS: error= 1.67D-02 at cycle   6 NSaved=   6.
 NSaved= 6 IEnMin= 6 EnMin= -774.798009781604     IErMin= 6 ErrMin= 1.67D-02
 ErrMax= 1.67D-02  0.00D+00 EMaxC= 1.00D-01 BMatC= 2.10D-01 BMatP= 2.98D-01
 IDIUse=3 WtCom= 8.33D-01 WtEn= 1.67D-01
 EnCoef did   100 forward-backward iterations
 Coeff-Com:  0.393D+00 0.145D+00-0.176D-01 0.206D+00-0.478D-01 0.322D+00
 Coeff-En:   0.414D+00 0.000D+00 0.000D+00 0.331D+00 0.594D-02 0.249D+00
 Coeff:      0.396D+00 0.121D+00-0.146D-01 0.227D+00-0.389D-01 0.309D+00
 Gap=     0.011 Goal=   None    Shift=    0.000
 RMSDP=3.11D-03 MaxDP=2.45D-01 DE=-8.36D-01 OVMax= 7.39D-01

 Cycle  17  Pass 1  IDiag  1:
 E= -774.144980117556     Delta-E=        0.653029664048 Rises=F Damp=F
 DIIS: error= 3.09D-02 at cycle   7 NSaved=   7.
 NSaved= 7 IEnMin= 6 EnMin= -774.798009781604     IErMin= 6 ErrMin= 1.67D-02
 ErrMax= 3.09D-02  0.00D+00 EMaxC= 1.00D-01 BMatC= 4.22D-01 BMatP= 2.10D-01
 IDIUse=2 WtCom= 0.00D+00 WtEn= 1.00D+00
 EnCoef did   100 forward-backward iterations
 Coeff-En:   0.406D+00 0.000D+00 0.000D+00 0.332D+00 0.495D-02 0.246D+00
 Coeff-En:   0.115D-01
 Coeff:      0.406D+00 0.000D+00 0.000D+00 0.332D+00 0.495D-02 0.246D+00
 Coeff:      0.115D-01
 Gap=    -0.004 Goal=   None    Shift=    0.000
 RMSDP=3.02D-03 MaxDP=2.11D-01 DE= 6.53D-01 OVMax= 9.80D-01

 Cycle  18  Pass 1  IDiag  1:
 E= -774.777067151872     Delta-E=       -0.632087034315 Rises=F Damp=F
 DIIS: error= 1.49D-02 at cycle   8 NSaved=   8.
 NSaved= 8 IEnMin= 6 EnMin= -774.798009781604     IErMin= 8 ErrMin= 1.49D-02
 ErrMax= 1.49D-02  0.00D+00 EMaxC= 1.00D-01 BMatC= 2.21D-01 BMatP= 2.10D-01
 IDIUse=3 WtCom= 8.51D-01 WtEn= 1.49D-01
 EnCoef did   100 forward-backward iterations
 Coeff-Com:  0.260D+00 0.119D+00-0.116D-01 0.142D+00-0.154D+00 0.431D+00
 Coeff-Com:  0.712D-01 0.143D+00
 Coeff-En:   0.373D+00 0.000D+00 0.000D+00 0.298D+00 0.314D-02 0.233D+00
 Coeff-En:   0.727D-02 0.854D-01
 Coeff:      0.277D+00 0.102D+00-0.991D-02 0.165D+00-0.131D+00 0.401D+00
 Coeff:      0.617D-01 0.135D+00
 Gap=    -0.003 Goal=   None    Shift=    0.000
 RMSDP=4.25D-03 MaxDP=2.51D-01 DE=-6.32D-01 OVMax= 9.94D-01

 Cycle  19  Pass 1  IDiag  1:
 E= -774.816386178813     Delta-E=       -0.039319026941 Rises=F Damp=F
 DIIS: error= 2.45D-02 at cycle   9 NSaved=   9.
 NSaved= 9 IEnMin= 9 EnMin= -774.816386178813     IErMin= 8 ErrMin= 1.49D-02
 ErrMax= 2.45D-02  0.00D+00 EMaxC= 1.00D-01 BMatC= 2.06D-01 BMatP= 2.10D-01
 IDIUse=3 WtCom= 8.51D-01 WtEn= 1.49D-01
 EnCoef did   100 forward-backward iterations
 Coeff-Com:  0.201D+00 0.113D+00-0.930D-02 0.838D-01-0.125D+00 0.378D+00
 Coeff-Com:  0.611D-01 0.173D+00 0.124D+00
 Coeff-En:   0.326D+00 0.000D+00 0.000D+00 0.254D+00 0.205D-02 0.232D+00
 Coeff-En:   0.475D-02 0.119D+00 0.623D-01
 Coeff:      0.220D+00 0.960D-01-0.792D-02 0.109D+00-0.106D+00 0.357D+00
 Coeff:      0.528D-01 0.165D+00 0.115D+00
 Gap=     0.000 Goal=   None    Shift=    0.000
 RMSDP=3.64D-03 MaxDP=2.38D-01 DE=-3.93D-02 OVMax= 9.69D-01

 Cycle  20  Pass 1  IDiag  1:
 E= -774.861316973567     Delta-E=       -0.044930794754 Rises=F Damp=F
 DIIS: error= 1.40D-02 at cycle  10 NSaved=  10.
 NSaved=10 IEnMin=10 EnMin= -774.861316973567     IErMin=10 ErrMin= 1.40D-02
 ErrMax= 1.40D-02  0.00D+00 EMaxC= 1.00D-01 BMatC= 1.55D-01 BMatP= 2.06D-01
 IDIUse=3 WtCom= 8.60D-01 WtEn= 1.40D-01
 EnCoef did   100 forward-backward iterations
 Coeff-Com:  0.161D+00 0.108D+00-0.811D-02 0.505D-01-0.891D-01 0.318D+00
 Coeff-Com:  0.537D-01 0.170D+00 0.148D+00 0.888D-01
 Coeff-En:   0.130D+00 0.000D+00 0.000D+00 0.798D-01 0.866D-03 0.217D+00
 Coeff-En:   0.201D-02 0.213D+00 0.210D+00 0.147D+00
 Coeff:      0.157D+00 0.927D-01-0.698D-02 0.546D-01-0.765D-01 0.304D+00
 Coeff:      0.464D-01 0.176D+00 0.156D+00 0.969D-01
 Gap=    -0.008 Goal=   None    Shift=    0.000
 RMSDP=4.17D-03 MaxDP=2.17D-01 DE=-4.49D-02 OVMax= 9.80D-01

 Cycle  21  Pass 1  IDiag  1:
 E= -774.869843675262     Delta-E=       -0.008526701695 Rises=F Damp=F
 DIIS: error= 1.84D-02 at cycle  11 NSaved=  11.
 NSaved=11 IEnMin=11 EnMin= -774.869843675262     IErMin=10 ErrMin= 1.40D-02
 ErrMax= 1.84D-02  0.00D+00 EMaxC= 1.00D-01 BMatC= 1.57D-01 BMatP= 1.55D-01
 IDIUse=3 WtCom= 8.60D-01 WtEn= 1.40D-01
 EnCoef did   100 forward-backward iterations
 Coeff-Com:  0.116D+00 0.107D+00-0.361D-02 0.139D-01-0.708D-01 0.274D+00
 Coeff-Com:  0.675D-01 0.139D+00 0.126D+00 0.132D+00 0.997D-01
 Coeff-En:   0.309D-01 0.000D+00 0.000D+00 0.138D-02 0.636D-03 0.205D+00
 Coeff-En:   0.147D-02 0.213D+00 0.196D+00 0.224D+00 0.127D+00
 Coeff:      0.104D+00 0.920D-01-0.311D-02 0.122D-01-0.608D-01 0.264D+00
 Coeff:      0.582D-01 0.149D+00 0.136D+00 0.144D+00 0.104D+00
 Gap=    -0.002 Goal=   None    Shift=    0.000
 RMSDP=4.13D-03 MaxDP=2.08D-01 DE=-8.53D-03 OVMax= 9.89D-01

 Cycle  22  Pass 1  IDiag  1:
 E= -774.851894036160     Delta-E=        0.017949639102 Rises=F Damp=F
 DIIS: error= 1.40D-02 at cycle  12 NSaved=  12.
 NSaved=12 IEnMin=11 EnMin= -774.869843675262     IErMin=12 ErrMin= 1.40D-02
 ErrMax= 1.40D-02  0.00D+00 EMaxC= 1.00D-01 BMatC= 1.62D-01 BMatP= 1.55D-01
 IDIUse=3 WtCom= 8.60D-01 WtEn= 1.40D-01
 EnCoef did   100 forward-backward iterations
 Coeff-Com:  0.110D+00 0.103D+00-0.795D-03 0.172D-01-0.856D-01 0.267D+00
 Coeff-Com:  0.705D-01 0.984D-01 0.752D-01 0.132D+00 0.131D+00 0.822D-01
 Coeff-En:   0.102D-01 0.000D+00 0.000D+00 0.103D-02 0.473D-03 0.155D+00
 Coeff-En:   0.110D-02 0.125D+00 0.787D-01 0.264D+00 0.235D+00 0.130D+00
 Coeff:      0.962D-01 0.888D-01-0.684D-03 0.149D-01-0.736D-01 0.251D+00
 Coeff:      0.608D-01 0.102D+00 0.757D-01 0.151D+00 0.145D+00 0.889D-01
 Gap=    -0.001 Goal=   None    Shift=    0.000
 RMSDP=3.53D-03 MaxDP=2.28D-01 DE= 1.79D-02 OVMax= 9.68D-01

 Cycle  23  Pass 1  IDiag  1:
 E= -774.345313646605     Delta-E=        0.506580389555 Rises=F Damp=F
 DIIS: error= 2.86D-02 at cycle  13 NSaved=  13.
 NSaved=13 IEnMin=11 EnMin= -774.869843675262     IErMin=12 ErrMin= 1.40D-02
 ErrMax= 2.86D-02  0.00D+00 EMaxC= 1.00D-01 BMatC= 2.66D-01 BMatP= 1.55D-01
 IDIUse=2 WtCom= 0.00D+00 WtEn= 1.00D+00
 EnCoef did   100 forward-backward iterations
 Coeff-En:   0.120D-02 0.000D+00 0.000D+00 0.674D-04 0.394D-03 0.148D+00
 Coeff-En:   0.914D-03 0.111D+00 0.623D-01 0.273D+00 0.244D+00 0.142D+00
 Coeff-En:   0.176D-01
 Coeff:      0.120D-02 0.000D+00 0.000D+00 0.674D-04 0.394D-03 0.148D+00
 Coeff:      0.914D-03 0.111D+00 0.623D-01 0.273D+00 0.244D+00 0.142D+00
 Coeff:      0.176D-01
 Gap=    -0.006 Goal=   None    Shift=    0.000
 RMSDP=4.26D-03 MaxDP=2.09D-01 DE= 5.07D-01 OVMax= 9.99D-01

 Cycle  24  Pass 1  IDiag  1:
 E= -774.326097352351     Delta-E=        0.019216294254 Rises=F Damp=F
 DIIS: error= 2.90D-02 at cycle  14 NSaved=  14.
 NSaved=14 IEnMin=11 EnMin= -774.869843675262     IErMin=12 ErrMin= 1.40D-02
 ErrMax= 2.90D-02  0.00D+00 EMaxC= 1.00D-01 BMatC= 2.78D-01 BMatP= 1.55D-01
 IDIUse=2 WtCom= 0.00D+00 WtEn= 1.00D+00
 EnCoef did   100 forward-backward iterations
 Coeff-En:   0.113D+00 0.000D+00 0.000D+00 0.671D-04 0.392D-03 0.145D+00
 Coeff-En:   0.908D-03 0.858D-01 0.857D-02 0.157D+00 0.137D+00 0.115D+00
 Coeff-En:   0.713D-01 0.166D+00
 Coeff:      0.113D+00 0.000D+00 0.000D+00 0.671D-04 0.392D-03 0.145D+00
 Coeff:      0.908D-03 0.858D-01 0.857D-02 0.157D+00 0.137D+00 0.115D+00
 Coeff:      0.713D-01 0.166D+00
 Gap=    -0.000 Goal=   None    Shift=    0.000
 RMSDP=3.36D-03 MaxDP=1.66D-01 DE= 1.92D-02 OVMax= 9.82D-01

 Cycle  25  Pass 1  IDiag  1:
 E= -774.928332125360     Delta-E=       -0.602234773010 Rises=F Damp=F
 DIIS: error= 1.38D-02 at cycle  15 NSaved=  15.
 NSaved=15 IEnMin=15 EnMin= -774.928332125360     IErMin=15 ErrMin= 1.38D-02
 ErrMax= 1.38D-02  0.00D+00 EMaxC= 1.00D-01 BMatC= 1.08D-01 BMatP= 1.55D-01
 IDIUse=3 WtCom= 8.62D-01 WtEn= 1.38D-01
 EnCoef did   100 forward-backward iterations
 Coeff-Com:  0.817D-01 0.725D-01-0.394D-04-0.566D-02-0.838D-01 0.205D+00
 Coeff-Com:  0.298D-01 0.583D-01 0.260D-01 0.940D-01 0.488D-01 0.128D+00
 Coeff-Com:  0.137D+00 0.100D+00 0.108D+00
 Coeff-En:   0.437D-01 0.000D+00 0.000D+00 0.801D-04 0.468D-03 0.169D-01
 Coeff-En:   0.108D-02 0.873D-05 0.282D-02 0.979D-01 0.264D-05 0.169D+00
 Coeff-En:   0.229D+00 0.199D+00 0.240D+00
 Coeff:      0.765D-01 0.625D-01-0.340D-04-0.487D-02-0.722D-01 0.179D+00
 Coeff:      0.258D-01 0.503D-01 0.228D-01 0.946D-01 0.421D-01 0.133D+00
 Coeff:      0.150D+00 0.114D+00 0.126D+00
 Gap=     0.002 Goal=   None    Shift=    0.000
[...]
 104         V                 0.173263          1.599803
 105         V                 0.173618          1.592309
 106         V                 0.180520          1.625569
 107         V                 0.181015          1.635365
 108         V                 0.192635          1.401735
 109         V                 0.197493          1.411643
 110         V                 0.205791          1.529912
 111         V                 0.206485          1.521997
 112         V                 0.231364          1.699817
 113         V                 0.239338          1.583097
 114         V                 0.242109          1.603115
 115         V                 0.243081          1.615328
 116         V                 0.248214          1.736405
 117         V                 0.248379          1.835092
 118         V                 0.249974          1.812559
 119         V                 0.250853          1.820011
 120         V                 0.252116          1.856325
 121         V                 0.252713          1.861575
 122         V                 0.259433          1.554196
 123         V                 0.262896          1.552309
 124         V                 0.287413          1.643815
 125         V                 0.364692          1.436916
 126         V                 0.365123          1.436332
 127         V                 0.368275          1.431624
 128         V                 0.385168          1.484447
 129         V                 0.385865          1.497371
 130         V                 0.402490          1.669063
 131         V                 0.409950          2.006876
 132         V                 0.412370          1.987633
 133         V                 0.418457          1.540845
 134         V                 0.422167          1.731926
 135         V                 0.423724          1.700520
 136         V                 0.425129          1.540632
 137         V                 0.429617          2.003780
 138         V                 0.434259          1.891213
 139         V                 0.438357          1.805853
 140         V                 0.438594          1.797028
 141         V                 0.442690          1.742051
 142         V                 0.443125          1.651867
 143         V                 0.460842          1.400633
 144         V                 0.462053          1.414264
 145         V                 0.473039          1.377650
 146         V                 0.475189          1.378021
 147         V                 0.518041          2.222115
 148         V                 0.525266          2.220290
 149         V                 0.528332          2.064498
 150         V                 0.529286          2.072314
 151         V                 0.543678          2.162153
 152         V                 0.544902          2.160061
 153         V                 0.548720          2.249680
 154         V                 0.553300          2.302843
 155         V                 0.558894          2.375127
 156         V                 0.560198          2.365655
 157         V                 0.561664          2.378180
 158         V                 0.562233          2.351750
 159         V                 0.564671          2.382825
 160         V                 0.566708          2.227787
 161         V                 0.571344          2.082847
 162         V                 0.572166          2.012481
 163         V                 0.587457          2.028317
 164         V                 0.587992          2.048569
 165         V                 0.591456          2.028466
 166         V                 0.592344          2.039782
 167         V                 0.601774          2.186496
 168         V                 0.604709          2.218269
 169         V                 0.606958          1.947625
 170         V                 0.607466          1.953089
 171         V                 0.612170          1.963056
 172         V                 0.612579          1.961189
 173         V                 0.620844          1.951654
 174         V                 0.623203          2.000101
 175         V                 0.623709          2.013165
 176         V                 0.631399          2.005029
 177         V                 0.634433          2.009261
 178         V                 0.634484          2.008787
 179         V                 0.638463          2.138765
 180         V                 0.642895          1.989559
 181         V                 0.643272          1.966980
 182         V                 0.646937          2.005878
 183         V                 0.648134          2.004942
 184         V                 0.652304          2.071691
 185         V                 0.654199          2.183129
 186         V                 0.658620          2.260335
 187         V                 0.671685          1.768457
 188         V                 0.672911          1.769799
 189         V                 0.676432          1.834955
 190         V                 0.678021          1.728485
 191         V                 0.678600          1.757010
 192         V                 0.683893          1.951808
 193         V                 0.684522          1.930681
 194         V                 0.686015          1.955988
 195         V                 0.699947          1.919878
 196         V                 0.700699          1.837955
 197         V                 0.702039          1.828660
 198         V                 0.704313          1.825599
 199         V                 0.766719          1.948575
 200         V                 0.768728          1.959617
 201         V                 0.788092          2.258218
 202         V                 0.807790          1.966631
 203         V                 0.818837          1.926092
 204         V                 0.823060          1.909358
 205         V                 0.844128          1.741668
 206         V                 0.845518          1.747722
 207         V                 0.850605          1.747781
 208         V                 0.851917          1.745591
 209         V                 0.937101          1.917372
 210         V                 0.937437          1.916103
 211         V                 0.937928          1.917585
 212         V                 0.943252          2.060750
 213         V                 0.946319          1.903655
 214         V                 0.949057          1.914658
 215         V                 0.949766          1.914241
 216         V                 0.979019          1.808125
 217         V                 0.982166          1.802659
 218         V                 1.018559          2.077690
 219         V                 1.021061          2.110822
 220         V                 1.028522          2.171577
 221         V                 1.029771          2.166725
 222         V                 1.033949          2.195856
 223         V                 1.035419          2.182626
 224         V                 1.107698          1.981834
 225         V                 1.108188          1.977133
 226         V                 1.109298          1.979655
 227         V                 1.110892          1.975160
 228         V                 1.113568          1.983140
 229         V                 1.114556          1.981274
 230         V                 1.129063          2.180335
 231         V                 1.198405          2.254388
 232         V                 1.198473          2.255296
 233         V                 1.199323          2.260810
 234         V                 1.203606          2.249784
 235         V                 1.204107          2.245973
 236         V                 1.289539          2.358646
 237         V                 1.293254          2.211919
 238         V                 1.294223          2.211133
 239         V                 1.325962          2.221143
 240         V                 1.327508          2.221299
 241         V                 1.353389          2.256084
 242         V                 1.354589          2.258832
 243         V                 1.358459          2.265450
 244         V                 1.359705          2.266711
 245         V                 1.381389          2.514960
 246         V                 1.385783          2.493496
 247         V                 1.387180          2.492428
 248         V                 1.390763          2.537417
 249         V                 1.391449          2.538286
 250         V                 1.393041          2.480216
 251         V                 1.418109          2.264543
 252         V                 1.418412          2.263276
 253         V                 1.419515          2.259910
 254         V                 1.422286          2.257842
 255         V                 1.425833          2.294236
 256         V                 1.426430          2.299484
 257         V                 1.429936          2.356616
 258         V                 1.437497          2.384969
 259         V                 1.483331          2.698244
 260         V                 1.486200          2.675962
 261         V                 1.488139          2.709264
 262         V                 1.489507          2.694445
 263         V                 1.490666          2.697894
 264         V                 1.492320          2.714537
 265         V                 1.492647          2.678295
 266         V                 1.498353          2.779149
 267         V                 1.498993          2.755400
 268         V                 1.500613          2.738402
 269         V                 1.503774          2.819389
 270         V                 1.504393          2.821680
 271         V                 1.515498          2.840978
 272         V                 1.517322          2.882371
 273         V                 1.534722          2.835392
 274         V                 1.535151          2.837771
 275         V                 1.559408          2.700844
 276         V                 1.560265          2.704412
 277         V                 1.618967          2.641867
 278         V                 1.619305          2.640116
 279         V                 1.621867          2.653622
 280         V                 1.624983          2.637623
 281         V                 1.625657          2.637131
 282         V                 1.632431          2.646393
 283         V                 1.637004          2.670210
 284         V                 1.638696          2.730870
 285         V                 1.640252          2.749598
 286         V                 1.641530          2.903001
 287         V                 1.642323          2.888144
 288         V                 1.643337          2.691972
 289         V                 1.650438          2.878075
 290         V                 1.650742          2.883781
 291         V                 1.664921          2.926681
 292         V                 1.666837          2.895704
 293         V                 1.667486          2.890138
 294         V                 1.678033          2.914931
 295         V                 1.703681          2.835946
 296         V                 1.705579          2.810706
 297         V                 1.707882          2.885028
 298         V                 1.708531          2.977533
 299         V                 1.709781          2.992280
 300         V                 1.710444          2.947854
 301         V                 1.711079          2.852464
 302         V                 1.711440          2.904742
 303         V                 1.714319          3.122203
 304         V                 1.714656          3.131665
 305         V                 1.721166          2.597129
 306         V                 1.723158          2.581260
 307         V                 1.743816          2.680693
 308         V                 1.744455          2.686818
 309         V                 1.757724          2.798390
 310         V                 1.758074          2.788313
 311         V                 1.758454          2.810813
 312         V                 1.763909          2.804742
 313         V                 1.764448          2.799004
 314         V                 1.767085          2.802421
 315         V                 1.776056          2.814286
 316         V                 1.778613          2.807123
 317         V                 1.778837          2.798839
 318         V                 1.783905          2.844204
 319         V                 1.787925          2.838792
 320         V                 1.788233          2.840179
 321         V                 1.794493          2.813414
 322         V                 1.796322          2.798508
 323         V                 1.810124          2.736333
 324         V                 1.812748          2.675184
 325         V                 1.815242          2.684318
 326         V                 1.842435          2.780597
 327         V                 1.930742          3.242912
 328         V                 1.933035          3.249253
 329         V                 1.933371          3.248632
 330         V                 1.935407          3.255656
 331         V                 1.937319          3.232245
 332         V                 1.937801          3.235435
 333         V                 1.976037          2.964224
 334         V                 1.976541          2.963078
 335         V                 1.978634          2.962211
 336         V                 1.979258          2.961119
 337         V                 2.003651          2.965606
 338         V                 2.004083          2.964754
 339         V                 2.004971          2.927449
 340         V                 2.010522          2.956707
 341         V                 2.029270          3.241907
 342         V                 2.030305          3.112989
 343         V                 2.031111          3.026016
 344         V                 2.034834          3.223873
 345         V                 2.037265          3.274538
 346         V                 2.041290          3.306888
 347         V                 2.043695          3.306871
 348         V                 2.048099          3.332348
 349         V                 2.074714          3.438536
 350         V                 2.076088          3.440168
 351         V                 2.084235          3.440118
 352         V                 2.090634          3.444253
 353         V                 2.091211          3.443979
 354         V                 2.094389          3.414618
 355         V                 2.201376          3.214051
 356         V                 2.202642          3.215528
 357         V                 2.206339          3.190176
 358         V                 2.207962          3.187718
 359         V                 2.217096          3.390422
 360         V                 2.217834          3.391105
 361         V                 2.219001          3.393208
 362         V                 2.222538          3.397950
 363         V                 2.224941          3.423349
 364         V                 2.225210          3.422326
 365         V                 2.236345          3.398771
 366         V                 2.236376          3.403362
 367         V                 2.239348          3.459078
 368         V                 2.239851          3.453634
 369         V                 2.253034          3.791937
 370         V                 2.260518          3.845011
 371         V                 2.325355          3.566526
 372         V                 2.341361          3.660234
 373         V                 2.353276          3.942355
 374         V                 2.354559          3.932086
 375         V                 2.365686          3.999535
 376         V                 2.366201          3.989467
 377         V                 2.389738          4.139516
 378         V                 2.390667          4.145458
 379         V                 2.406345          3.909833
 380         V                 2.409655          4.135716
 381         V                 2.410053          4.096624
 382         V                 2.412327          3.907413
 383         V                 2.453818          4.239456
 384         V                 2.456150          4.225908
 385         V                 2.458866          4.169324
 386         V                 2.459625          4.197368
 387         V                 2.462064          3.893657
 388         V                 2.473660          3.817534
 389         V                 2.500794          3.889476
 390         V                 2.501004          3.885236
 391         V                 2.507521          4.038398
 392         V                 2.508982          4.037078
 393         V                 2.521652          3.983313
 394         V                 2.522306          3.990203
 395         V                 2.583453          4.234727
 396         V                 2.591359          4.213898
 397         V                 2.592006          4.214179
 398         V                 2.611566          4.222876
 399         V                 2.612368          4.224247
 400         V                 2.627147          4.307218
 Total kinetic energy from orbitals= 7.688094519977D+02
 No NMR shielding tensors so no spin-rotation constants.
 Leave Link  601 at Fri Jul  3 00:53:08 2020, MaxMem= 16642998272 cpu:        14.5
 (Enter /home/fuchs/agschreiner/public/bin/gaussian09-E.01/g09/l9999.exe)

 Test job not archived.
 1\1\GINC-NODE26-007\SP\RPBEPBE\CC-pVDZ\C20H24\SCHWAN\03-Jul-2020\0\\#p
  cc-pVDZ pbepbe empiricaldispersion=gd3bj scf=(xqc,maxcycle=250) int=(
 grid=ultrafine,acc2E=11) iop(6/7=3) gfinput nosymm\\opt\\0,1\C,0,-4.13
 797797,0.5621563,1.33573516\C,0,-4.68191258,0.00704366,0.0017367\C,0,-
 4.13342253,0.87811956,-1.14894812\C,0,-2.59022965,0.88343017,-1.170525
 2\C,0,-2.10143046,-0.57145454,-1.32929762\C,0,-2.60891172,-1.47153411,
 -0.18280014\C,0,-2.10618184,-0.88759749,1.15421795\C,0,-2.59495474,0.5
 6120679,1.36299688\C,0,-2.08769715,1.4208981,0.1861579\C,0,-4.15184775
 ,-1.43144604,-0.18045678\H,0,-4.52697738,-0.0486145,2.18060157\H,0,-4.
 51341114,1.59822031,1.48974443\H,0,-4.51902744,0.49818966,-2.12109222\
 H,0,-4.50903769,1.91986481,-1.04022436\H,0,-2.44777239,-0.97809775,-2.
 30542915\H,0,-0.98941529,-0.58931225,-1.35287911\H,0,-2.45601896,-1.52
 548256,1.99613851\H,0,-0.99430962,-0.91249238,1.17577761\H,0,-0.975517
 05,1.43811036,0.19105575\H,0,-2.42372676,2.47324436,0.31948364\H,0,-4.
 53786002,-1.85330433,-1.13501534\H,0,-4.54079825,-2.07893037,0.6366082
 2\C,0,4.15063847,-0.09531773,-1.43868423\C,0,4.68181213,0.00329229,0.0
 0757365\C,0,4.13427335,-1.19591798,0.81113107\C,0,2.59110983,-1.218078
 06,0.81645292\C,0,2.08875478,0.10493695,1.43211834\C,0,2.59529572,1.32
 97876,0.6418677\C,0,2.10538691,1.20516928,-0.81635017\C,0,2.60770849,-
 0.09555825,-1.47737812\C,0,2.10128048,-1.29242841,-0.64494942\C,0,4.13
 833745,1.30278968,0.63962103\H,0,4.53898092,0.75802057,-2.03795224\H,0
 ,4.53643867,-1.02368867,-1.9155753\H,0,4.51081624,-1.14757642,1.857077
 78\H,0,4.51965414,-2.14440316,0.37528529\H,0,2.42559052,0.17688103,2.4
 9018971\H,0,0.97657196,0.10868165,1.45048572\H,0,2.45467022,2.08275002
 ,-1.40454\H,0,0.99350968,1.22808723,-0.83895867\H,0,0.98925857,-1.3152
 4886,-0.66338373\H,0,2.44762794,-2.24317635,-1.10781811\H,0,4.514945,1
 .39665936,1.68242139\H,0,4.52646183,2.18163039,0.07824687\\Version=ES6
 4L-G09RevE.01\HF=-775.1248105\RMSD=3.845e-03\Dipole=-0.0617746,0.15643
 04,0.0520165\Quadrupole=-1.4219044,0.1647622,1.2571422,-1.3482925,0.45
 9572,-0.4772255\PG=C01 [X(C20H24)]\\@


 HO!  SUCH BUGS AND GOBLINS IN MY LIFE!

                            -- HAMLET, ACT 5, SCENE 2
 Job cpu time:       0 days 17 hours 30 minutes 13.0 seconds.
 File lengths (MBytes):  RWF=    117 Int=      0 D2E=      0 Chk=      9 Scr=      1
 Normal termination of Gaussian 09 at Fri Jul  3 00:53:09 2020.
