 Entering Gaussian System, Link 0=/home/fuchs/agschreiner/public/bin/gaussian16-C.01/g16/g16
 Input=cluster.com
 Output=cluster.log
 Initial command:
 /home/fuchs/agschreiner/public/bin/gaussian09-E.01/g09/l1.exe "/scratch/fuchs/giessen/schwan/promotion/dimer_paper/bondshare/AdMe/core2/Gau-116337.inp" -scrdir="/scratch/fuchs/giessen/schwan/promotion/dimer_paper/bondshare/AdMe/core2/"
 Entering Link 1 = /home/fuchs/agschreiner/public/bin/gaussian09-E.01/g09/l1.exe PID=    116338.
  
 Copyright (c) 1988,1990,1992,1993,1995,1998,2003,2009,2015,
            Gaussian, Inc.  All Rights Reserved.
  
 This is part of the Gaussian(R) 09 program.  It is based on
 the Gaussian(R) 03 system (copyright 2003, Gaussian, Inc.),
 the Gaussian(R) 98 system (copyright 1998, Gaussian, Inc.),
 the Gaussian(R) 94 system (copyright 1995, Gaussian, Inc.),
 the Gaussian 92(TM) system (copyright 1992, Gaussian, Inc.),
 the Gaussian 90(TM) system (copyright 1990, Gaussian, Inc.),
 the Gaussian 88(TM) system (copyright 1988, Gaussian, Inc.),
 the Gaussian 86(TM) system (copyright 1986, Carnegie Mellon
 University), and the Gaussian 82(TM) system (copyright 1983,
 Carnegie Mellon University). Gaussian is a federally registered
 trademark of Gaussian, Inc.
  
 This software contains proprietary and confidential information,
 including trade secrets, belonging to Gaussian, Inc.
  
 This software is provided under written license and may be
 used, copied, transmitted, or stored only in accord with that
 written license.
  
 The following legend is applicable only to US Government
 contracts under FAR:
  
                    RESTRICTED RIGHTS LEGEND
  
 Use, reproduction and disclosure by the US Government is
 subject to restrictions as set forth in subparagraphs (a)
 and (c) of the Commercial Computer Software - Restricted
 Rights clause in FAR 52.227-19.
  
 Gaussian, Inc.
 340 Quinnipiac St., Bldg. 40, Wallingford CT 06492
  
  
 ---------------------------------------------------------------
 Warning -- This program may not be used in any manner that
 competes with the business of Gaussian, Inc. or will provide
 assistance to any competitor of Gaussian, Inc.  The licensee
 of this program is prohibited from giving any competitor of
 Gaussian, Inc. access to this program.  By using this program,
 the user acknowledges that Gaussian, Inc. is engaged in the
 business of creating and licensing software in the field of
 computational chemistry and represents and warrants to the
 licensee that it is not a competitor of Gaussian, Inc. and that
 it will not use this program in any manner prohibited above.
 ---------------------------------------------------------------
  

 Cite this work as:
 Gaussian 09, Revision E.01,
 M. J. Frisch, G. W. Trucks, H. B. Schlegel, G. E. Scuseria, 
 M. A. Robb, J. R. Cheeseman, G. Scalmani, V. Barone, B. Mennucci, 
 G. A. Petersson, H. Nakatsuji, M. Caricato, X. Li, H. P. Hratchian, 
 A. F. Izmaylov, J. Bloino, G. Zheng, J. L. Sonnenberg, M. Hada, 
 M. Ehara, K. Toyota, R. Fukuda, J. Hasegawa, M. Ishida, T. Nakajima, 
 Y. Honda, O. Kitao, H. Nakai, T. Vreven, J. A. Montgomery, Jr., 
 J. E. Peralta, F. Ogliaro, M. Bearpark, J. J. Heyd, E. Brothers, 
 K. N. Kudin, V. N. Staroverov, T. Keith, R. Kobayashi, J. Normand, 
 K. Raghavachari, A. Rendell, J. C. Burant, S. S. Iyengar, J. Tomasi, 
 M. Cossi, N. Rega, J. M. Millam, M. Klene, J. E. Knox, J. B. Cross, 
 V. Bakken, C. Adamo, J. Jaramillo, R. Gomperts, R. E. Stratmann, 
 O. Yazyev, A. J. Austin, R. Cammi, C. Pomelli, J. W. Ochterski, 
 R. L. Martin, K. Morokuma, V. G. Zakrzewski, G. A. Voth, 
 P. Salvador, J. J. Dannenberg, S. Dapprich, A. D. Daniels, 
 O. Farkas, J. B. Foresman, J. V. Ortiz, J. Cioslowski, 
 and D. J. Fox, Gaussian, Inc., Wallingford CT, 2013.
 
 ******************************************
 Gaussian 09:  ES64L-G09RevE.01 30-Nov-2015
                 2-Jul-2020 
 ******************************************
 %NProcShared=20
 Will use up to   20 processors via shared memory.
 %Mem=124GB
 %Chk=ziel1
 ----------------------------------------------------------------------
 #p cc-pVDZ pbepbe empiricaldispersion=gd3bj scf=(xqc,maxcycle=250) int
 =(grid=ultrafine,acc2E=11) iop(6/7=3) gfinput nosymm
 ----------------------------------------------------------------------
 1/38=1/1;
 2/12=2,15=1,17=6,18=5,40=1/2;
 3/5=16,11=2,16=1,24=10,25=1,30=1,74=1009,75=-5,124=41/1,2,3;
 4//1;
 5/5=2,7=250,8=3,13=1,38=5,87=11/2,8;
 6/7=3,8=2,9=2,10=2,28=1/1;
 99/5=1,9=1/99;
 Leave Link    1 at Thu Jul  2 22:37:07 2020, MaxMem= 16642998272 cpu:        10.8
 (Enter /home/fuchs/agschreiner/public/bin/gaussian09-E.01/g09/l101.exe)
 ---
 opt
 ---
 Symbolic Z-matrix:
 Charge =  0 Multiplicity = 1
 C                     4.15064  -0.09532  -1.43868 
 C                     4.68181   0.00329   0.00757 
 C                     4.13427  -1.19592   0.81113 
 C                     2.59111  -1.21808   0.81645 
 C                     2.08875   0.10494   1.43212 
 C                     2.5953    1.32979   0.64187 
 C                     2.10539   1.20517  -0.81635 
 C                     2.60771  -0.09556  -1.47738 
 C                     2.10128  -1.29243  -0.64495 
 C                     4.13834   1.30279   0.63962 
 H                     4.53898   0.75802  -2.03795 
 H                     4.53644  -1.02369  -1.91558 
 H                     4.51082  -1.14758   1.85708 
 H                     4.51965  -2.1444    0.37529 
 H                     2.42559   0.17688   2.49019 
 H                     0.97657   0.10868   1.45049 
 H                     2.45467   2.08275  -1.40454 
 H                     0.99351   1.22809  -0.83896 
 H                     0.98926  -1.31525  -0.66338 
 H                     2.44763  -2.24318  -1.10782 
 H                     4.51494   1.39666   1.68242 
 H                     4.52646   2.18163   0.07825 
 
 NAtoms=     22 NQM=       22 NQMF=       0 NMMI=      0 NMMIF=      0
                NMic=       0 NMicF=      0.
                    Isotopes and Nuclear Properties:
 (Nuclear quadrupole moments (NQMom) in fm**2, nuclear magnetic moments (NMagM)
  in nuclear magnetons)

  Atom         1           2           3           4           5           6           7           8           9          10
 IAtWgt=          12          12          12          12          12          12          12          12          12          12
 AtmWgt=  12.0000000  12.0000000  12.0000000  12.0000000  12.0000000  12.0000000  12.0000000  12.0000000  12.0000000  12.0000000
 NucSpn=           0           0           0           0           0           0           0           0           0           0
 AtZEff=   0.0000000   0.0000000   0.0000000   0.0000000   0.0000000   0.0000000   0.0000000   0.0000000   0.0000000   0.0000000
 NQMom=    0.0000000   0.0000000   0.0000000   0.0000000   0.0000000   0.0000000   0.0000000   0.0000000   0.0000000   0.0000000
 NMagM=    0.0000000   0.0000000   0.0000000   0.0000000   0.0000000   0.0000000   0.0000000   0.0000000   0.0000000   0.0000000
 AtZNuc=   6.0000000   6.0000000   6.0000000   6.0000000   6.0000000   6.0000000   6.0000000   6.0000000   6.0000000   6.0000000

  Atom        11          12          13          14          15          16          17          18          19          20
 IAtWgt=           1           1           1           1           1           1           1           1           1           1
 AtmWgt=   1.0078250   1.0078250   1.0078250   1.0078250   1.0078250   1.0078250   1.0078250   1.0078250   1.0078250   1.0078250
 NucSpn=           1           1           1           1           1           1           1           1           1           1
 AtZEff=   0.0000000   0.0000000   0.0000000   0.0000000   0.0000000   0.0000000   0.0000000   0.0000000   0.0000000   0.0000000
 NQMom=    0.0000000   0.0000000   0.0000000   0.0000000   0.0000000   0.0000000   0.0000000   0.0000000   0.0000000   0.0000000
 NMagM=    2.7928460   2.7928460   2.7928460   2.7928460   2.7928460   2.7928460   2.7928460   2.7928460   2.7928460   2.7928460
 AtZNuc=   1.0000000   1.0000000   1.0000000   1.0000000   1.0000000   1.0000000   1.0000000   1.0000000   1.0000000   1.0000000

  Atom        21          22
 IAtWgt=           1           1
 AtmWgt=   1.0078250   1.0078250
 NucSpn=           1           1
 AtZEff=   0.0000000   0.0000000
 NQMom=    0.0000000   0.0000000
 NMagM=    2.7928460   2.7928460
 AtZNuc=   1.0000000   1.0000000
 Leave Link  101 at Thu Jul  2 22:37:07 2020, MaxMem= 16642998272 cpu:         2.9
 (Enter /home/fuchs/agschreiner/public/bin/gaussian09-E.01/g09/l202.exe)
                          Input orientation:                          
 ---------------------------------------------------------------------
 Center     Atomic      Atomic             Coordinates (Angstroms)
 Number     Number       Type             X           Y           Z
 ---------------------------------------------------------------------
      1          6           0        4.150638   -0.095318   -1.438684
      2          6           0        4.681812    0.003292    0.007574
      3          6           0        4.134273   -1.195918    0.811131
      4          6           0        2.591110   -1.218078    0.816453
      5          6           0        2.088755    0.104937    1.432118
      6          6           0        2.595296    1.329788    0.641868
      7          6           0        2.105387    1.205169   -0.816350
      8          6           0        2.607708   -0.095558   -1.477378
      9          6           0        2.101280   -1.292428   -0.644949
     10          6           0        4.138337    1.302790    0.639621
     11          1           0        4.538981    0.758021   -2.037952
     12          1           0        4.536439   -1.023689   -1.915575
     13          1           0        4.510816   -1.147576    1.857078
     14          1           0        4.519654   -2.144403    0.375285
     15          1           0        2.425591    0.176881    2.490190
     16          1           0        0.976572    0.108682    1.450486
     17          1           0        2.454670    2.082750   -1.404540
     18          1           0        0.993510    1.228087   -0.838959
     19          1           0        0.989259   -1.315249   -0.663384
     20          1           0        2.447628   -2.243176   -1.107818
     21          1           0        4.514945    1.396659    1.682421
     22          1           0        4.526462    2.181630    0.078247
 ---------------------------------------------------------------------
                    Distance matrix (angstroms):
                    1          2          3          4          5
     1  C    0.000000
     2  C    1.543869   0.000000
     3  C    2.504647   1.543894   0.000000
     4  C    2.962830   2.552855   1.543332   0.000000
     5  C    3.540194   2.960339   2.502398   1.543299   0.000000
     6  C    2.962889   2.552542   2.962481   2.553844   1.543159
     7  C    2.502323   2.959954   3.539816   2.962111   2.503278
     8  C    1.543415   2.552794   2.962848   2.553818   2.962209
     9  C    2.502590   2.960375   2.502508   1.543100   2.503397
    10  C    2.504837   1.543872   2.504590   2.963099   2.502737
    11  H    1.112708   2.184992   3.478353   3.980803   4.297850
    12  H    1.112717   2.185023   2.761581   3.359475   4.297907
    13  H    3.478365   2.185041   1.112711   2.184752   2.759667
    14  H    2.761414   2.184972   1.112701   2.184489   3.476449
    15  H    4.299527   3.359174   2.761053   2.185109   1.112722
    16  H    4.296931   3.977676   3.475893   2.183809   1.112341
    17  H    2.760698   3.358329   4.298829   3.980815   3.477394
    18  H    3.475418   3.977476   4.296859   3.358041   2.760221
    19  H    3.476154   3.977900   3.475565   2.182954   2.759882
    20  H    2.760981   3.358913   2.761139   2.185002   3.477600
    21  H    3.478508   2.185047   2.761434   3.359746   2.760000
    22  H    2.761669   2.185014   3.478328   3.981024   3.476786
                    6          7          8          9         10
     6  C    0.000000
     7  C    1.543353   0.000000
     8  C    2.554010   1.543106   0.000000
     9  C    2.962426   2.503475   1.543342   0.000000
    10  C    1.543280   2.502453   2.963087   3.540463   0.000000
    11  H    3.359504   2.759463   2.184640   3.476662   2.761646
    12  H    3.980879   3.476509   2.184821   2.759838   3.478507
    13  H    3.359060   4.297525   3.980849   3.476634   2.761383
    14  H    3.980480   4.297478   3.359414   2.759578   3.478277
    15  H    2.185014   3.477515   3.981078   3.477520   2.761481
    16  H    2.182941   2.759539   3.357783   2.760240   3.475652
    17  H    2.185066   1.112706   2.184892   3.477599   2.760737
    18  H    2.183783   1.112343   2.182946   2.760035   3.475877
    19  H    3.358460   2.760733   2.183944   1.112409   4.297516
    20  H    3.981115   3.477524   2.185055   1.112711   4.299525
    21  H    2.184554   3.476564   3.981030   4.298095   1.112689
    22  H    2.184653   2.759599   3.359639   4.298093   1.112719
                   11         12         13         14         15
    11  H    0.000000
    12  H    1.785909   0.000000
    13  H    4.336283   3.774774   0.000000
    14  H    3.774672   2.550358   1.785903   0.000000
    15  H    5.030727   5.030687   2.550134   3.774425   0.000000
    16  H    5.028081   5.028447   3.772848   4.334268   1.784738
    17  H    2.549602   3.774239   5.030000   5.029986   4.336139
    18  H    3.772123   4.333814   5.028303   5.028099   3.773476
    19  H    4.334560   3.772993   4.333845   3.772270   3.772867
    20  H    3.774399   2.550049   3.774612   2.550028   4.336222
    21  H    3.774867   4.336373   2.550227   3.774619   2.550637
    22  H    2.550514   3.774851   3.774666   4.336225   3.774937
                   16         17         18         19         20
    16  H    0.000000
    17  H    3.772651   0.000000
    18  H    2.548512   1.784747   0.000000
    19  H    2.548761   3.774009   2.549393   0.000000
    20  H    3.773614   4.336096   3.773118   1.784772   0.000000
    21  H    3.772634   3.774226   4.334314   5.028689   5.030670
    22  H    4.333806   2.549658   3.772567   5.028915   5.030628
                   21         22
    21  H    0.000000
    22  H    1.785970   0.000000
 Symmetry turned off by external request.
 Stoichiometry    C10H12
 Framework group  C1[X(C10H12)]
 Deg. of freedom    60
 Full point group                 C1      NOp   1
 Rotational constants (GHZ):      1.7874334      1.7873121      1.7859627
 Leave Link  202 at Thu Jul  2 22:37:08 2020, MaxMem= 16642998272 cpu:         0.7
 (Enter /home/fuchs/agschreiner/public/bin/gaussian09-E.01/g09/l301.exe)
 Standard basis: CC-pVDZ (5D, 7F)
 Ernie: Thresh=  0.10000D-02 Tol=  0.10000D-05 Strict=F.
 Ernie:  20 primitive shells out of 280 were deleted.
 AO basis set in the form of general basis input (Overlap normalization):
      1 0
 S   7 1.00       0.000000000000
      0.6665000000D+04  0.6935163173D-03
      0.1000000000D+04  0.5341502433D-02
      0.2280000000D+03  0.2713667141D-01
      0.6471000000D+02  0.1019923853D+00
      0.2106000000D+02  0.2755086365D+00
      0.7495000000D+01  0.4510864331D+00
      0.2797000000D+01  0.2875657448D+00
 S   7 1.00       0.000000000000
      0.6665000000D+04  0.7733547404D-05
      0.2280000000D+03  0.2780721367D-03
      0.6471000000D+02 -0.2578756542D-02
      0.2106000000D+02 -0.8950876838D-02
      0.7495000000D+01 -0.1060588547D+00
      0.2797000000D+01 -0.1315176856D+00
      0.5215000000D+00  0.1099486598D+01
 S   1 1.00       0.000000000000
      0.1596000000D+00  0.1000000000D+01
 P   3 1.00       0.000000000000
      0.9439000000D+01  0.5697925159D-01
      0.2002000000D+01  0.3132072115D+00
      0.5456000000D+00  0.7603767417D+00
 P   1 1.00       0.000000000000
      0.1517000000D+00  0.1000000000D+01
 D   1 1.00       0.000000000000
      0.5500000000D+00  0.1000000000D+01
 ****
      2 0
 S   7 1.00       0.000000000000
      0.6665000000D+04  0.6935163173D-03
      0.1000000000D+04  0.5341502433D-02
      0.2280000000D+03  0.2713667141D-01
      0.6471000000D+02  0.1019923853D+00
      0.2106000000D+02  0.2755086365D+00
      0.7495000000D+01  0.4510864331D+00
      0.2797000000D+01  0.2875657448D+00
 S   7 1.00       0.000000000000
      0.6665000000D+04  0.7733547404D-05
      0.2280000000D+03  0.2780721367D-03
      0.6471000000D+02 -0.2578756542D-02
      0.2106000000D+02 -0.8950876838D-02
      0.7495000000D+01 -0.1060588547D+00
      0.2797000000D+01 -0.1315176856D+00
      0.5215000000D+00  0.1099486598D+01
 S   1 1.00       0.000000000000
      0.1596000000D+00  0.1000000000D+01
 P   3 1.00       0.000000000000
      0.9439000000D+01  0.5697925159D-01
      0.2002000000D+01  0.3132072115D+00
      0.5456000000D+00  0.7603767417D+00
 P   1 1.00       0.000000000000
      0.1517000000D+00  0.1000000000D+01
 D   1 1.00       0.000000000000
      0.5500000000D+00  0.1000000000D+01
 ****
      3 0
 S   7 1.00       0.000000000000
      0.6665000000D+04  0.6935163173D-03
      0.1000000000D+04  0.5341502433D-02
      0.2280000000D+03  0.2713667141D-01
      0.6471000000D+02  0.1019923853D+00
      0.2106000000D+02  0.2755086365D+00
      0.7495000000D+01  0.4510864331D+00
      0.2797000000D+01  0.2875657448D+00
 S   7 1.00       0.000000000000
      0.6665000000D+04  0.7733547404D-05
      0.2280000000D+03  0.2780721367D-03
      0.6471000000D+02 -0.2578756542D-02
      0.2106000000D+02 -0.8950876838D-02
      0.7495000000D+01 -0.1060588547D+00
      0.2797000000D+01 -0.1315176856D+00
      0.5215000000D+00  0.1099486598D+01
 S   1 1.00       0.000000000000
      0.1596000000D+00  0.1000000000D+01
 P   3 1.00       0.000000000000
      0.9439000000D+01  0.5697925159D-01
      0.2002000000D+01  0.3132072115D+00
      0.5456000000D+00  0.7603767417D+00
 P   1 1.00       0.000000000000
      0.1517000000D+00  0.1000000000D+01
 D   1 1.00       0.000000000000
      0.5500000000D+00  0.1000000000D+01
 ****
      4 0
 S   7 1.00       0.000000000000
      0.6665000000D+04  0.6935163173D-03
      0.1000000000D+04  0.5341502433D-02
      0.2280000000D+03  0.2713667141D-01
      0.6471000000D+02  0.1019923853D+00
      0.2106000000D+02  0.2755086365D+00
      0.7495000000D+01  0.4510864331D+00
      0.2797000000D+01  0.2875657448D+00
 S   7 1.00       0.000000000000
      0.6665000000D+04  0.7733547404D-05
      0.2280000000D+03  0.2780721367D-03
      0.6471000000D+02 -0.2578756542D-02
      0.2106000000D+02 -0.8950876838D-02
      0.7495000000D+01 -0.1060588547D+00
      0.2797000000D+01 -0.1315176856D+00
      0.5215000000D+00  0.1099486598D+01
 S   1 1.00       0.000000000000
      0.1596000000D+00  0.1000000000D+01
 P   3 1.00       0.000000000000
      0.9439000000D+01  0.5697925159D-01
      0.2002000000D+01  0.3132072115D+00
      0.5456000000D+00  0.7603767417D+00
 P   1 1.00       0.000000000000
      0.1517000000D+00  0.1000000000D+01
 D   1 1.00       0.000000000000
      0.5500000000D+00  0.1000000000D+01
 ****
      5 0
 S   7 1.00       0.000000000000
      0.6665000000D+04  0.6935163173D-03
      0.1000000000D+04  0.5341502433D-02
      0.2280000000D+03  0.2713667141D-01
      0.6471000000D+02  0.1019923853D+00
      0.2106000000D+02  0.2755086365D+00
      0.7495000000D+01  0.4510864331D+00
      0.2797000000D+01  0.2875657448D+00
 S   7 1.00       0.000000000000
      0.6665000000D+04  0.7733547404D-05
      0.2280000000D+03  0.2780721367D-03
      0.6471000000D+02 -0.2578756542D-02
      0.2106000000D+02 -0.8950876838D-02
      0.7495000000D+01 -0.1060588547D+00
      0.2797000000D+01 -0.1315176856D+00
      0.5215000000D+00  0.1099486598D+01
 S   1 1.00       0.000000000000
      0.1596000000D+00  0.1000000000D+01
 P   3 1.00       0.000000000000
      0.9439000000D+01  0.5697925159D-01
      0.2002000000D+01  0.3132072115D+00
      0.5456000000D+00  0.7603767417D+00
 P   1 1.00       0.000000000000
      0.1517000000D+00  0.1000000000D+01
 D   1 1.00       0.000000000000
      0.5500000000D+00  0.1000000000D+01
 ****
      6 0
 S   7 1.00       0.000000000000
      0.6665000000D+04  0.6935163173D-03
      0.1000000000D+04  0.5341502433D-02
      0.2280000000D+03  0.2713667141D-01
      0.6471000000D+02  0.1019923853D+00
      0.2106000000D+02  0.2755086365D+00
      0.7495000000D+01  0.4510864331D+00
      0.2797000000D+01  0.2875657448D+00
 S   7 1.00       0.000000000000
      0.6665000000D+04  0.7733547404D-05
      0.2280000000D+03  0.2780721367D-03
      0.6471000000D+02 -0.2578756542D-02
      0.2106000000D+02 -0.8950876838D-02
      0.7495000000D+01 -0.1060588547D+00
      0.2797000000D+01 -0.1315176856D+00
      0.5215000000D+00  0.1099486598D+01
 S   1 1.00       0.000000000000
      0.1596000000D+00  0.1000000000D+01
 P   3 1.00       0.000000000000
      0.9439000000D+01  0.5697925159D-01
      0.2002000000D+01  0.3132072115D+00
      0.5456000000D+00  0.7603767417D+00
 P   1 1.00       0.000000000000
      0.1517000000D+00  0.1000000000D+01
 D   1 1.00       0.000000000000
      0.5500000000D+00  0.1000000000D+01
 ****
      7 0
 S   7 1.00       0.000000000000
      0.6665000000D+04  0.6935163173D-03
      0.1000000000D+04  0.5341502433D-02
      0.2280000000D+03  0.2713667141D-01
      0.6471000000D+02  0.1019923853D+00
      0.2106000000D+02  0.2755086365D+00
      0.7495000000D+01  0.4510864331D+00
      0.2797000000D+01  0.2875657448D+00
 S   7 1.00       0.000000000000
      0.6665000000D+04  0.7733547404D-05
      0.2280000000D+03  0.2780721367D-03
      0.6471000000D+02 -0.2578756542D-02
      0.2106000000D+02 -0.8950876838D-02
      0.7495000000D+01 -0.1060588547D+00
      0.2797000000D+01 -0.1315176856D+00
      0.5215000000D+00  0.1099486598D+01
 S   1 1.00       0.000000000000
      0.1596000000D+00  0.1000000000D+01
 P   3 1.00       0.000000000000
      0.9439000000D+01  0.5697925159D-01
      0.2002000000D+01  0.3132072115D+00
      0.5456000000D+00  0.7603767417D+00
 P   1 1.00       0.000000000000
      0.1517000000D+00  0.1000000000D+01
 D   1 1.00       0.000000000000
      0.5500000000D+00  0.1000000000D+01
 ****
      8 0
 S   7 1.00       0.000000000000
      0.6665000000D+04  0.6935163173D-03
      0.1000000000D+04  0.5341502433D-02
      0.2280000000D+03  0.2713667141D-01
      0.6471000000D+02  0.1019923853D+00
      0.2106000000D+02  0.2755086365D+00
      0.7495000000D+01  0.4510864331D+00
      0.2797000000D+01  0.2875657448D+00
 S   7 1.00       0.000000000000
      0.6665000000D+04  0.7733547404D-05
      0.2280000000D+03  0.2780721367D-03
      0.6471000000D+02 -0.2578756542D-02
      0.2106000000D+02 -0.8950876838D-02
      0.7495000000D+01 -0.1060588547D+00
      0.2797000000D+01 -0.1315176856D+00
      0.5215000000D+00  0.1099486598D+01
 S   1 1.00       0.000000000000
      0.1596000000D+00  0.1000000000D+01
 P   3 1.00       0.000000000000
      0.9439000000D+01  0.5697925159D-01
      0.2002000000D+01  0.3132072115D+00
      0.5456000000D+00  0.7603767417D+00
 P   1 1.00       0.000000000000
      0.1517000000D+00  0.1000000000D+01
 D   1 1.00       0.000000000000
      0.5500000000D+00  0.1000000000D+01
 ****
      9 0
 S   7 1.00       0.000000000000
      0.6665000000D+04  0.6935163173D-03
      0.1000000000D+04  0.5341502433D-02
      0.2280000000D+03  0.2713667141D-01
      0.6471000000D+02  0.1019923853D+00
      0.2106000000D+02  0.2755086365D+00
      0.7495000000D+01  0.4510864331D+00
      0.2797000000D+01  0.2875657448D+00
 S   7 1.00       0.000000000000
      0.6665000000D+04  0.7733547404D-05
      0.2280000000D+03  0.2780721367D-03
      0.6471000000D+02 -0.2578756542D-02
      0.2106000000D+02 -0.8950876838D-02
      0.7495000000D+01 -0.1060588547D+00
      0.2797000000D+01 -0.1315176856D+00
      0.5215000000D+00  0.1099486598D+01
 S   1 1.00       0.000000000000
      0.1596000000D+00  0.1000000000D+01
 P   3 1.00       0.000000000000
      0.9439000000D+01  0.5697925159D-01
      0.2002000000D+01  0.3132072115D+00
      0.5456000000D+00  0.7603767417D+00
 P   1 1.00       0.000000000000
      0.1517000000D+00  0.1000000000D+01
 D   1 1.00       0.000000000000
      0.5500000000D+00  0.1000000000D+01
 ****
     10 0
 S   7 1.00       0.000000000000
      0.6665000000D+04  0.6935163173D-03
      0.1000000000D+04  0.5341502433D-02
      0.2280000000D+03  0.2713667141D-01
      0.6471000000D+02  0.1019923853D+00
      0.2106000000D+02  0.2755086365D+00
      0.7495000000D+01  0.4510864331D+00
      0.2797000000D+01  0.2875657448D+00
 S   7 1.00       0.000000000000
      0.6665000000D+04  0.7733547404D-05
      0.2280000000D+03  0.2780721367D-03
      0.6471000000D+02 -0.2578756542D-02
      0.2106000000D+02 -0.8950876838D-02
      0.7495000000D+01 -0.1060588547D+00
      0.2797000000D+01 -0.1315176856D+00
      0.5215000000D+00  0.1099486598D+01
 S   1 1.00       0.000000000000
      0.1596000000D+00  0.1000000000D+01
 P   3 1.00       0.000000000000
      0.9439000000D+01  0.5697925159D-01
      0.2002000000D+01  0.3132072115D+00
      0.5456000000D+00  0.7603767417D+00
 P   1 1.00       0.000000000000
      0.1517000000D+00  0.1000000000D+01
 D   1 1.00       0.000000000000
      0.5500000000D+00  0.1000000000D+01
 ****
     11 0
 S   3 1.00       0.000000000000
      0.1301000000D+02  0.3349872639D-01
      0.1962000000D+01  0.2348008012D+00
      0.4446000000D+00  0.8136829579D+00
 S   1 1.00       0.000000000000
      0.1220000000D+00  0.1000000000D+01
 P   1 1.00       0.000000000000
      0.7270000000D+00  0.1000000000D+01
 ****
     12 0
 S   3 1.00       0.000000000000
      0.1301000000D+02  0.3349872639D-01
      0.1962000000D+01  0.2348008012D+00
      0.4446000000D+00  0.8136829579D+00
 S   1 1.00       0.000000000000
      0.1220000000D+00  0.1000000000D+01
 P   1 1.00       0.000000000000
      0.7270000000D+00  0.1000000000D+01
 ****
     13 0
 S   3 1.00       0.000000000000
      0.1301000000D+02  0.3349872639D-01
      0.1962000000D+01  0.2348008012D+00
      0.4446000000D+00  0.8136829579D+00
 S   1 1.00       0.000000000000
      0.1220000000D+00  0.1000000000D+01
 P   1 1.00       0.000000000000
      0.7270000000D+00  0.1000000000D+01
 ****
     14 0
 S   3 1.00       0.000000000000
      0.1301000000D+02  0.3349872639D-01
      0.1962000000D+01  0.2348008012D+00
      0.4446000000D+00  0.8136829579D+00
 S   1 1.00       0.000000000000
      0.1220000000D+00  0.1000000000D+01
 P   1 1.00       0.000000000000
      0.7270000000D+00  0.1000000000D+01
 ****
     15 0
 S   3 1.00       0.000000000000
      0.1301000000D+02  0.3349872639D-01
      0.1962000000D+01  0.2348008012D+00
      0.4446000000D+00  0.8136829579D+00
 S   1 1.00       0.000000000000
      0.1220000000D+00  0.1000000000D+01
 P   1 1.00       0.000000000000
      0.7270000000D+00  0.1000000000D+01
 ****
     16 0
 S   3 1.00       0.000000000000
      0.1301000000D+02  0.3349872639D-01
      0.1962000000D+01  0.2348008012D+00
      0.4446000000D+00  0.8136829579D+00
 S   1 1.00       0.000000000000
      0.1220000000D+00  0.1000000000D+01
 P   1 1.00       0.000000000000
      0.7270000000D+00  0.1000000000D+01
 ****
     17 0
 S   3 1.00       0.000000000000
      0.1301000000D+02  0.3349872639D-01
      0.1962000000D+01  0.2348008012D+00
      0.4446000000D+00  0.8136829579D+00
 S   1 1.00       0.000000000000
      0.1220000000D+00  0.1000000000D+01
 P   1 1.00       0.000000000000
      0.7270000000D+00  0.1000000000D+01
 ****
     18 0
 S   3 1.00       0.000000000000
      0.1301000000D+02  0.3349872639D-01
      0.1962000000D+01  0.2348008012D+00
      0.4446000000D+00  0.8136829579D+00
 S   1 1.00       0.000000000000
      0.1220000000D+00  0.1000000000D+01
 P   1 1.00       0.000000000000
      0.7270000000D+00  0.1000000000D+01
 ****
     19 0
 S   3 1.00       0.000000000000
      0.1301000000D+02  0.3349872639D-01
      0.1962000000D+01  0.2348008012D+00
      0.4446000000D+00  0.8136829579D+00
 S   1 1.00       0.000000000000
      0.1220000000D+00  0.1000000000D+01
 P   1 1.00       0.000000000000
      0.7270000000D+00  0.1000000000D+01
 ****
     20 0
 S   3 1.00       0.000000000000
      0.1301000000D+02  0.3349872639D-01
      0.1962000000D+01  0.2348008012D+00
      0.4446000000D+00  0.8136829579D+00
 S   1 1.00       0.000000000000
      0.1220000000D+00  0.1000000000D+01
 P   1 1.00       0.000000000000
      0.7270000000D+00  0.1000000000D+01
 ****
     21 0
 S   3 1.00       0.000000000000
      0.1301000000D+02  0.3349872639D-01
      0.1962000000D+01  0.2348008012D+00
      0.4446000000D+00  0.8136829579D+00
 S   1 1.00       0.000000000000
      0.1220000000D+00  0.1000000000D+01
 P   1 1.00       0.000000000000
      0.7270000000D+00  0.1000000000D+01
 ****
     22 0
 S   3 1.00       0.000000000000
      0.1301000000D+02  0.3349872639D-01
      0.1962000000D+01  0.2348008012D+00
      0.4446000000D+00  0.8136829579D+00
 S   1 1.00       0.000000000000
      0.1220000000D+00  0.1000000000D+01
 P   1 1.00       0.000000000000
      0.7270000000D+00  0.1000000000D+01
 ****

   200 basis functions,   414 primitive gaussians,   210 cartesian basis functions
    36 alpha electrons       36 beta electrons
       nuclear repulsion energy       536.3134809213 Hartrees.
 IExCor= 1009 DFT=T Ex=PBE Corr=PBE ExCW=0 ScaHFX=  0.000000
 ScaDFX=  1.000000  1.000000  1.000000  1.000000 ScalE2=  1.000000  1.000000
 IRadAn=      5 IRanWt=     -1 IRanGd=            0 ICorTp=0 IEmpDi=141
 NAtoms=   22 NActive=   22 NUniq=   22 SFac= 1.00D+00 NAtFMM=   60 NAOKFM=F Big=F
 Integral buffers will be    131072 words long.
 Raffenetti 2 integral format.
 Two-electron integral symmetry is turned off.
 R6Disp:  Grimme-D3(BJ) Dispersion energy=       -0.0282175522 Hartrees.
 Nuclear repulsion after empirical dispersion term =      536.2852633692 Hartrees.
 Leave Link  301 at Thu Jul  2 22:37:08 2020, MaxMem= 16642998272 cpu:         6.8
 (Enter /home/fuchs/agschreiner/public/bin/gaussian09-E.01/g09/l302.exe)
 NPDir=0 NMtPBC=     1 NCelOv=     1 NCel=       1 NClECP=     1 NCelD=      1
         NCelK=      1 NCelE2=     1 NClLst=     1 CellRange=     0.0.
 One-electron integrals computed using PRISM.
 NBasis=   200 RedAO= T EigKep=  3.09D-03  NBF=   200
 NBsUse=   200 1.00D-06 EigRej= -1.00D+00 NBFU=   200
 Precomputing XC quadrature grid using
 IXCGrd= 4 IRadAn=           5 IRanWt=          -1 IRanGd=           0 AccXCQ= 0.00D+00.
 Generated NRdTot=       0 NPtTot=           0 NUsed=           0 NTot=          32
 NSgBfM=   210   210   210   210   210 MxSgAt=    22 MxSgA2=    22.
 Leave Link  302 at Thu Jul  2 22:37:09 2020, MaxMem= 16642998272 cpu:        14.8
 (Enter /home/fuchs/agschreiner/public/bin/gaussian09-E.01/g09/l303.exe)
 DipDrv:  MaxL=1.
 Leave Link  303 at Thu Jul  2 22:37:10 2020, MaxMem= 16642998272 cpu:         1.6
 (Enter /home/fuchs/agschreiner/public/bin/gaussian09-E.01/g09/l401.exe)
 ExpMin= 1.22D-01 ExpMax= 6.67D+03 ExpMxC= 2.28D+02 IAcc=3 IRadAn=         5 AccDes= 0.00D+00
 Harris functional with IExCor= 1009 and IRadAn=       5 diagonalized for initial guess.
 HarFok:  IExCor= 1009 AccDes= 0.00D+00 IRadAn=         5 IDoV= 1 UseB2=F ITyADJ=14
 ICtDFT=  3500011 ScaDFX=  1.000000  1.000000  1.000000  1.000000
 FoFCou: FMM=F IPFlag=           0 FMFlag=      100000 FMFlg1=           0
         NFxFlg=           0 DoJE=T BraDBF=F KetDBF=T FulRan=T
         wScrn=  0.000000 ICntrl=     500 IOpCl=  0 I1Cent=   200000004 NGrid=           0
         NMat0=    1 NMatS0=      1 NMatT0=    0 NMatD0=    1 NMtDS0=    0 NMtDT0=    0
 Symmetry not used in FoFCou.
 Harris En= -387.691160483562    
 JPrj=0 DoOrth=F DoCkMO=F.
 Leave Link  401 at Thu Jul  2 22:37:11 2020, MaxMem= 16642998272 cpu:        23.1
 (Enter /home/fuchs/agschreiner/public/bin/gaussian09-E.01/g09/l502.exe)
 Closed shell SCF:
 Using DIIS extrapolation, IDIIS=  1040.
 Two-electron integral symmetry not used.
 Keep J ints in memory in canonical form, NReq=206868264.
 IVT=      156354 IEndB=      156354 NGot= 16642998272 MDV= 16440826869
 LenX= 16440826869 LenY= 16440782328
 Requested convergence on RMS density matrix=1.00D-08 within 128 cycles.
 Requested convergence on MAX density matrix=1.00D-06.
 Requested convergence on             energy=1.00D-06.
 No special actions if energy rises.
 FoFCou: FMM=F IPFlag=           0 FMFlag=           0 FMFlg1=           0
         NFxFlg=           0 DoJE=F BraDBF=F KetDBF=F FulRan=T
         wScrn=  0.000000 ICntrl=     600 IOpCl=  0 I1Cent=           0 NGrid=           0
         NMat0=    1 NMatS0=  20100 NMatT0=    0 NMatD0=    1 NMtDS0=    0 NMtDT0=    0
 Symmetry not used in FoFCou.
 Integral accuracy reduced to 1.0D-05 until final iterations.

 Cycle   1  Pass 0  IDiag  1:
 E= -387.257113418663    
 DIIS: error= 3.14D-02 at cycle   1 NSaved=   1.
 NSaved= 1 IEnMin= 1 EnMin= -387.257113418663     IErMin= 1 ErrMin= 3.14D-02
 ErrMax= 3.14D-02  0.00D+00 EMaxC= 1.00D-01 BMatC= 2.36D-01 BMatP= 2.36D-01
 IDIUse=3 WtCom= 6.86D-01 WtEn= 3.14D-01
 Coeff-Com:  0.100D+01
 Coeff-En:   0.100D+01
 Coeff:      0.100D+01
 Gap=    -0.152 Goal=   None    Shift=    0.000
 GapD=   -0.152 DampG=0.250 DampE=0.500 DampFc=0.2500 IDamp=-1.
 Damping current iteration by 2.50D-01
 RMSDP=9.77D-03 MaxDP=2.86D-01              OVMax= 7.22D-01

 Cycle   2  Pass 0  IDiag  1:
 E= -387.374251570573     Delta-E=       -0.117138151910 Rises=F Damp=T
 DIIS: error= 1.13D-02 at cycle   2 NSaved=   2.
 NSaved= 2 IEnMin= 2 EnMin= -387.374251570573     IErMin= 2 ErrMin= 1.13D-02
 ErrMax= 1.13D-02  0.00D+00 EMaxC= 1.00D-01 BMatC= 3.40D-02 BMatP= 2.36D-01
 IDIUse=3 WtCom= 8.87D-01 WtEn= 1.13D-01
 Coeff-Com: -0.246D-01 0.102D+01
 Coeff-En:   0.189D+00 0.811D+00
 Coeff:     -0.523D-03 0.100D+01
 Gap=     0.042 Goal=   None    Shift=    0.000
 RMSDP=3.53D-03 MaxDP=9.15D-02 DE=-1.17D-01 OVMax= 9.46D-01

 Cycle   3  Pass 0  IDiag  1:
 E= -387.246329109969     Delta-E=        0.127922460604 Rises=F Damp=F
 DIIS: error= 3.05D-02 at cycle   3 NSaved=   3.
 NSaved= 3 IEnMin= 2 EnMin= -387.374251570573     IErMin= 2 ErrMin= 1.13D-02
 ErrMax= 3.05D-02  0.00D+00 EMaxC= 1.00D-01 BMatC= 2.37D-01 BMatP= 3.40D-02
 IDIUse=2 WtCom= 0.00D+00 WtEn= 1.00D+00
 Coeff-En:   0.000D+00 0.665D+00 0.335D+00
 Coeff:      0.000D+00 0.665D+00 0.335D+00
 Gap=    -0.053 Goal=   None    Shift=    0.000
 RMSDP=6.94D-03 MaxDP=2.51D-01 DE= 1.28D-01 OVMax= 9.68D-01

 Cycle   4  Pass 0  IDiag  1:
 E= -386.897924499291     Delta-E=        0.348404610678 Rises=F Damp=F
 DIIS: error= 4.54D-02 at cycle   4 NSaved=   4.
 NSaved= 4 IEnMin= 2 EnMin= -387.374251570573     IErMin= 2 ErrMin= 1.13D-02
 ErrMax= 4.54D-02  0.00D+00 EMaxC= 1.00D-01 BMatC= 4.67D-01 BMatP= 3.40D-02
 IDIUse=2 WtCom= 0.00D+00 WtEn= 1.00D+00
 EnCoef did     4 forward-backward iterations
 Coeff-En:   0.126D+00 0.000D+00 0.503D+00 0.371D+00
 Coeff:      0.126D+00 0.000D+00 0.503D+00 0.371D+00
 Gap=    -0.004 Goal=   None    Shift=    0.000
 RMSDP=3.64D-03 MaxDP=1.76D-01 DE= 3.48D-01 OVMax= 4.31D-01

 Problem detected with inexpensive integrals.
 Switching to full accuracy and repeating last cycle.
 Cycle   5  Pass 1  IDiag  1:
 E= -386.897918116826     Delta-E=        0.000006382465 Rises=F Damp=F
 DIIS: error= 4.54D-02 at cycle   1 NSaved=   1.
 NSaved= 1 IEnMin= 1 EnMin= -386.897918116826     IErMin= 1 ErrMin= 4.54D-02
 ErrMax= 4.54D-02  0.00D+00 EMaxC= 1.00D-01 BMatC= 4.67D-01 BMatP= 4.67D-01
 IDIUse=3 WtCom= 5.46D-01 WtEn= 4.54D-01
 Coeff-Com:  0.100D+01
 Coeff-En:   0.100D+01
 Coeff:      0.100D+01
 Gap=    -0.355 Goal=   None    Shift=    0.000
 GapD=   -0.355 DampG=0.250 DampE=0.500 DampFc=0.2500 IDamp=-1.
 Damping current iteration by 2.50D-01
 RMSDP=1.74D-02 MaxDP=4.25D-01 DE= 6.38D-06 OVMax= 8.35D-01

 Cycle   6  Pass 1  IDiag  1:
 E= -387.185678113297     Delta-E=       -0.287759996471 Rises=F Damp=T
 DIIS: error= 6.46D-03 at cycle   2 NSaved=   2.
 NSaved= 2 IEnMin= 2 EnMin= -387.185678113297     IErMin= 2 ErrMin= 6.46D-03
 ErrMax= 6.46D-03  0.00D+00 EMaxC= 1.00D-01 BMatC= 1.55D-02 BMatP= 4.67D-01
 IDIUse=3 WtCom= 9.35D-01 WtEn= 6.46D-02
 Coeff-Com:  0.151D-01 0.985D+00
 Coeff-En:   0.218D+00 0.782D+00
 Coeff:      0.282D-01 0.972D+00
 Gap=     0.382 Goal=   None    Shift=    0.000
 RMSDP=6.21D-03 MaxDP=1.94D-01 DE=-2.88D-01 OVMax= 4.91D-01

 Cycle   7  Pass 1  IDiag  1:
 E= -387.144850253461     Delta-E=        0.040827859836 Rises=F Damp=F
 DIIS: error= 4.26D-02 at cycle   3 NSaved=   3.
 NSaved= 3 IEnMin= 2 EnMin= -387.185678113297     IErMin= 2 ErrMin= 6.46D-03
 ErrMax= 4.26D-02  0.00D+00 EMaxC= 1.00D-01 BMatC= 2.87D-01 BMatP= 1.55D-02
 IDIUse=2 WtCom= 0.00D+00 WtEn= 1.00D+00
 EnCoef did   100 forward-backward iterations
 Coeff-En:   0.433D+00 0.762D-02 0.559D+00
 Coeff:      0.433D+00 0.762D-02 0.559D+00
 Gap=    -0.011 Goal=   None    Shift=    0.000
 RMSDP=6.22D-03 MaxDP=1.63D-01 DE= 4.08D-02 OVMax= 9.78D-01

 Cycle   8  Pass 1  IDiag  1:
 E= -387.424878154375     Delta-E=       -0.280027900914 Rises=F Damp=F
 DIIS: error= 1.74D-02 at cycle   4 NSaved=   4.
 NSaved= 4 IEnMin= 4 EnMin= -387.424878154375     IErMin= 2 ErrMin= 6.46D-03
 ErrMax= 1.74D-02  0.00D+00 EMaxC= 1.00D-01 BMatC= 7.93D-02 BMatP= 1.55D-02
 IDIUse=2 WtCom= 0.00D+00 WtEn= 1.00D+00
 EnCoef did    17 forward-backward iterations
 Coeff-En:   0.256D+00 0.000D+00 0.437D+00 0.307D+00
 Coeff:      0.256D+00 0.000D+00 0.437D+00 0.307D+00
 Gap=    -0.047 Goal=   None    Shift=    0.000
 RMSDP=6.04D-03 MaxDP=2.36D-01 DE=-2.80D-01 OVMax= 9.69D-01

 Cycle   9  Pass 1  IDiag  1:
 E= -387.228264106315     Delta-E=        0.196614048060 Rises=F Damp=F
 DIIS: error= 3.16D-02 at cycle   5 NSaved=   5.
 NSaved= 5 IEnMin= 4 EnMin= -387.424878154375     IErMin= 2 ErrMin= 6.46D-03
 ErrMax= 3.16D-02  0.00D+00 EMaxC= 1.00D-01 BMatC= 2.35D-01 BMatP= 1.55D-02
 IDIUse=2 WtCom= 0.00D+00 WtEn= 1.00D+00
 EnCoef did     4 forward-backward iterations
 Coeff-En:   0.000D+00 0.000D+00 0.198D+00 0.534D+00 0.267D+00
 Coeff:      0.000D+00 0.000D+00 0.198D+00 0.534D+00 0.267D+00
 Gap=     0.002 Goal=   None    Shift=    0.000
 RMSDP=5.49D-03 MaxDP=1.99D-01 DE= 1.97D-01 OVMax= 8.85D-01

 Cycle  10  Pass 1  IDiag  1:
 E= -387.422063923552     Delta-E=       -0.193799817238 Rises=F Damp=F
 DIIS: error= 1.87D-02 at cycle   6 NSaved=   6.
 NSaved= 6 IEnMin= 4 EnMin= -387.424878154375     IErMin= 2 ErrMin= 6.46D-03
 ErrMax= 1.87D-02  0.00D+00 EMaxC= 1.00D-01 BMatC= 8.42D-02 BMatP= 1.55D-02
 IDIUse=2 WtCom= 0.00D+00 WtEn= 1.00D+00
 EnCoef did     9 forward-backward iterations
 Coeff-En:   0.000D+00 0.000D+00 0.131D+00 0.487D+00 0.232D+00 0.151D+00
 Coeff:      0.000D+00 0.000D+00 0.131D+00 0.487D+00 0.232D+00 0.151D+00
 Gap=    -0.016 Goal=   None    Shift=    0.000
 RMSDP=5.84D-03 MaxDP=1.97D-01 DE=-1.94D-01 OVMax= 9.64D-01

 Cycle  11  Pass 1  IDiag  1:
 E= -387.364812764221     Delta-E=        0.057251159331 Rises=F Damp=F
 DIIS: error= 1.83D-02 at cycle   7 NSaved=   7.
 NSaved= 7 IEnMin= 4 EnMin= -387.424878154375     IErMin= 2 ErrMin= 6.46D-03
 ErrMax= 1.83D-02  0.00D+00 EMaxC= 1.00D-01 BMatC= 1.27D-01 BMatP= 1.55D-02
 IDIUse=2 WtCom= 0.00D+00 WtEn= 1.00D+00
 EnCoef did   100 forward-backward iterations
 Coeff-En:   0.445D-02 0.000D+00 0.000D+00 0.340D+00 0.110D+00 0.315D+00
 Coeff-En:   0.230D+00
 Coeff:      0.445D-02 0.000D+00 0.000D+00 0.340D+00 0.110D+00 0.315D+00
 Coeff:      0.230D+00
 Gap=    -0.003 Goal=   None    Shift=    0.000
 RMSDP=5.56D-03 MaxDP=2.09D-01 DE= 5.73D-02 OVMax= 9.23D-01

 Cycle  12  Pass 1  IDiag  1:
 E= -387.414313681158     Delta-E=       -0.049500916938 Rises=F Damp=F
 DIIS: error= 1.66D-02 at cycle   8 NSaved=   8.
 NSaved= 8 IEnMin= 4 EnMin= -387.424878154375     IErMin= 2 ErrMin= 6.46D-03
 ErrMax= 1.66D-02  0.00D+00 EMaxC= 1.00D-01 BMatC= 8.43D-02 BMatP= 1.55D-02
 IDIUse=2 WtCom= 0.00D+00 WtEn= 1.00D+00
 EnCoef did   100 forward-backward iterations
 Coeff-En:   0.000D+00 0.000D+00 0.750D-02 0.270D+00 0.000D+00 0.301D+00
 Coeff-En:   0.236D+00 0.186D+00
 Coeff:      0.000D+00 0.000D+00 0.750D-02 0.270D+00 0.000D+00 0.301D+00
 Coeff:      0.236D+00 0.186D+00
 Gap=    -0.002 Goal=   None    Shift=    0.000
 RMSDP=5.91D-03 MaxDP=2.40D-01 DE=-4.95D-02 OVMax= 9.84D-01

 Cycle  13  Pass 1  IDiag  1:
 E= -387.447112762243     Delta-E=       -0.032799081085 Rises=F Damp=F
 DIIS: error= 1.97D-02 at cycle   9 NSaved=   9.
 NSaved= 9 IEnMin= 9 EnMin= -387.447112762243     IErMin= 2 ErrMin= 6.46D-03
 ErrMax= 1.97D-02  0.00D+00 EMaxC= 1.00D-01 BMatC= 6.86D-02 BMatP= 1.55D-02
 IDIUse=2 WtCom= 0.00D+00 WtEn= 1.00D+00
 EnCoef did    34 forward-backward iterations
 Coeff-En:   0.000D+00 0.000D+00 0.000D+00 0.277D+00 0.000D+00 0.137D+00
 Coeff-En:   0.515D-01 0.257D+00 0.278D+00
 Coeff:      0.000D+00 0.000D+00 0.000D+00 0.277D+00 0.000D+00 0.137D+00
 Coeff:      0.515D-01 0.257D+00 0.278D+00
 Gap=    -0.003 Goal=   None    Shift=    0.000
 RMSDP=5.98D-03 MaxDP=1.71D-01 DE=-3.28D-02 OVMax= 9.94D-01

 Cycle  14  Pass 1  IDiag  1:
 E= -387.427939247454     Delta-E=        0.019173514789 Rises=F Damp=F
 DIIS: error= 1.50D-02 at cycle  10 NSaved=  10.
 NSaved=10 IEnMin= 9 EnMin= -387.447112762243     IErMin= 2 ErrMin= 6.46D-03
 ErrMax= 1.50D-02  0.00D+00 EMaxC= 1.00D-01 BMatC= 7.59D-02 BMatP= 1.55D-02
 IDIUse=2 WtCom= 0.00D+00 WtEn= 1.00D+00
 EnCoef did     4 forward-backward iterations
 Coeff-En:   0.000D+00 0.000D+00 0.000D+00 0.247D-03 0.000D+00 0.109D+00
 Coeff-En:   0.000D+00 0.294D+00 0.307D+00 0.290D+00
 Coeff:      0.000D+00 0.000D+00 0.000D+00 0.247D-03 0.000D+00 0.109D+00
 Coeff:      0.000D+00 0.294D+00 0.307D+00 0.290D+00
 Gap=    -0.001 Goal=   None    Shift=    0.000
 RMSDP=5.12D-03 MaxDP=1.56D-01 DE= 1.92D-02 OVMax= 8.52D-01

 Cycle  15  Pass 1  IDiag  1:
 E= -387.433466519233     Delta-E=       -0.005527271780 Rises=F Damp=F
 DIIS: error= 1.50D-02 at cycle  11 NSaved=  11.
 NSaved=11 IEnMin= 9 EnMin= -387.447112762243     IErMin= 2 ErrMin= 6.46D-03
 ErrMax= 1.50D-02  0.00D+00 EMaxC= 1.00D-01 BMatC= 7.17D-02 BMatP= 1.55D-02
 IDIUse=2 WtCom= 0.00D+00 WtEn= 1.00D+00
 EnCoef did   100 forward-backward iterations
 Coeff-En:   0.000D+00 0.000D+00 0.000D+00 0.314D-02 0.000D+00 0.000D+00
 Coeff-En:   0.295D-02 0.304D+00 0.305D+00 0.259D+00 0.126D+00
 Coeff:      0.000D+00 0.000D+00 0.000D+00 0.314D-02 0.000D+00 0.000D+00
 Coeff:      0.295D-02 0.304D+00 0.305D+00 0.259D+00 0.126D+00
 Gap=     0.000 Goal=   None    Shift=    0.000
 RMSDP=5.99D-03 MaxDP=1.99D-01 DE=-5.53D-03 OVMax= 9.98D-01

 Cycle  16  Pass 1  IDiag  1:
 E= -387.453835794063     Delta-E=       -0.020369274829 Rises=F Damp=F
 DIIS: error= 1.79D-02 at cycle  12 NSaved=  12.
 NSaved=12 IEnMin=12 EnMin= -387.453835794063     IErMin= 2 ErrMin= 6.46D-03
 ErrMax= 1.79D-02  0.00D+00 EMaxC= 1.00D-01 BMatC= 6.09D-02 BMatP= 1.55D-02
 IDIUse=2 WtCom= 0.00D+00 WtEn= 1.00D+00
 EnCoef did   100 forward-backward iterations
 Coeff-En:   0.000D+00 0.000D+00 0.000D+00 0.000D+00 0.000D+00 0.000D+00
 Coeff-En:   0.000D+00 0.273D+00 0.100D+00 0.155D+00 0.251D+00 0.221D+00
 Coeff:      0.000D+00 0.000D+00 0.000D+00 0.000D+00 0.000D+00 0.000D+00
 Coeff:      0.000D+00 0.273D+00 0.100D+00 0.155D+00 0.251D+00 0.221D+00
 Gap=     0.000 Goal=   None    Shift=    0.000
 RMSDP=5.71D-03 MaxDP=1.68D-01 DE=-2.04D-02 OVMax= 9.49D-01

 Cycle  17  Pass 1  IDiag  1:
 E= -387.469345756776     Delta-E=       -0.015509962713 Rises=F Damp=F
 DIIS: error= 1.74D-02 at cycle  13 NSaved=  13.
 NSaved=13 IEnMin=13 EnMin= -387.469345756776     IErMin= 2 ErrMin= 6.46D-03
 ErrMax= 1.74D-02  0.00D+00 EMaxC= 1.00D-01 BMatC= 5.20D-02 BMatP= 1.55D-02
 IDIUse=2 WtCom= 0.00D+00 WtEn= 1.00D+00
 EnCoef did    62 forward-backward iterations
 Coeff-En:   0.000D+00 0.000D+00 0.000D+00 0.000D+00 0.000D+00 0.000D+00
 Coeff-En:   0.000D+00 0.225D+00 0.657D-01 0.452D-03 0.265D+00 0.287D+00
 Coeff-En:   0.156D+00
 Coeff:      0.000D+00 0.000D+00 0.000D+00 0.000D+00 0.000D+00 0.000D+00
 Coeff:      0.000D+00 0.225D+00 0.657D-01 0.452D-03 0.265D+00 0.287D+00
 Coeff:      0.156D+00
 Gap=    -0.000 Goal=   None    Shift=    0.000
 RMSDP=5.92D-03 MaxDP=1.50D-01 DE=-1.55D-02 OVMax= 9.86D-01

 Cycle  18  Pass 1  IDiag  1:
 E= -387.527182547597     Delta-E=       -0.057836790821 Rises=F Damp=F
 DIIS: error= 9.95D-03 at cycle  14 NSaved=  14.
 NSaved=14 IEnMin=14 EnMin= -387.527182547597     IErMin= 2 ErrMin= 6.46D-03
 ErrMax= 9.95D-03  0.00D+00 EMaxC= 1.00D-01 BMatC= 2.06D-02 BMatP= 1.55D-02
 IDIUse=3 WtCom= 9.11D-02 WtEn= 9.09D-01
 EnCoef did    57 forward-backward iterations
 Coeff-Com: -0.104D-01 0.118D+00-0.232D+00-0.369D+00 0.559D-01-0.198D+00
 Coeff-Com: -0.166D-01 0.199D-01 0.375D+00 0.299D+00 0.227D+00 0.673D-01
 Coeff-Com:  0.215D+00 0.448D+00
 Coeff-En:   0.000D+00 0.000D+00 0.000D+00 0.000D+00 0.000D+00 0.000D+00
 Coeff-En:   0.000D+00 0.205D+00 0.350D-01 0.410D-03 0.224D+00 0.284D+00
 Coeff-En:   0.160D+00 0.920D-01
 Coeff:     -0.952D-03 0.107D-01-0.211D-01-0.336D-01 0.509D-02-0.181D-01
 Coeff:     -0.151D-02 0.188D+00 0.660D-01 0.276D-01 0.224D+00 0.265D+00
 Coeff:      0.165D+00 0.124D+00
 Gap=    -0.001 Goal=   None    Shift=    0.000
 RMSDP=5.99D-03 MaxDP=1.48D-01 DE=-5.78D-02 OVMax= 9.96D-01

 Cycle  19  Pass 1  IDiag  1:
 E= -387.502034760605     Delta-E=        0.025147786993 Rises=F Damp=F
 DIIS: error= 1.24D-02 at cycle  15 NSaved=  15.
 NSaved=15 IEnMin=14 EnMin= -387.527182547597     IErMin= 2 ErrMin= 6.46D-03
 ErrMax= 1.24D-02  0.00D+00 EMaxC= 1.00D-01 BMatC= 3.54D-02 BMatP= 1.55D-02
 IDIUse=2 WtCom= 0.00D+00 WtEn= 1.00D+00
 EnCoef did   100 forward-backward iterations
 Coeff-En:   0.000D+00 0.000D+00 0.000D+00 0.000D+00 0.000D+00 0.000D+00
 Coeff-En:   0.000D+00 0.101D+00 0.167D-03 0.349D-03 0.224D+00 0.267D+00
 Coeff-En:   0.147D+00 0.120D+00 0.139D+00
 Coeff:      0.000D+00 0.000D+00 0.000D+00 0.000D+00 0.000D+00 0.000D+00
 Coeff:      0.000D+00 0.101D+00 0.167D-03 0.349D-03 0.224D+00 0.267D+00
 Coeff:      0.147D+00 0.120D+00 0.139D+00
 Gap=     0.000 Goal=   None    Shift=    0.000
 RMSDP=3.33D-03 MaxDP=9.84D-02 DE= 2.51D-02 OVMax= 5.53D-01

 Cycle  20  Pass 1  IDiag  1:
 E= -387.465256149164     Delta-E=        0.036778611441 Rises=F Damp=F
 DIIS: error= 1.89D-02 at cycle  16 NSaved=  16.
 NSaved=16 IEnMin=14 EnMin= -387.527182547597     IErMin= 2 ErrMin= 6.46D-03
 ErrMax= 1.89D-02  0.00D+00 EMaxC= 1.00D-01 BMatC= 5.65D-02 BMatP= 1.55D-02
 IDIUse=2 WtCom= 0.00D+00 WtEn= 1.00D+00
 EnCoef did    50 forward-backward iterations
 Rare condition: small coef for last iteration: -0.133D-14
 Coeff-En:   0.000D+00 0.000D+00 0.000D+00 0.000D+00 0.000D+00 0.000D+00
 Coeff-En:   0.000D+00 0.000D+00 0.325D-01 0.191D-01 0.651D-01 0.139D+00
 Coeff-En:   0.157D+00 0.344D+00 0.195D+00 0.474D-01
 Coeff:      0.000D+00 0.000D+00 0.000D+00 0.000D+00 0.000D+00 0.000D+00
 Coeff:      0.000D+00 0.000D+00 0.325D-01 0.191D-01 0.651D-01 0.139D+00
 Coeff:      0.157D+00 0.344D+00 0.195D+00 0.474D-01
 Gap=    -0.002 Goal=   None    Shift=    0.000
 RMSDP=5.63D-03 MaxDP=1.63D-01 DE= 3.68D-02 OVMax= 9.36D-01

 Cycle  21  Pass 1  IDiag  1:
 E= -387.478835651886     Delta-E=       -0.013579502722 Rises=F Damp=F
 DIIS: error= 1.81D-02 at cycle  17 NSaved=  17.
 NSaved=17 IEnMin=14 EnMin= -387.527182547597     IErMin= 2 ErrMin= 6.46D-03
 ErrMax= 1.81D-02  0.00D+00 EMaxC= 1.00D-01 BMatC= 5.17D-02 BMatP= 1.55D-02
 IDIUse=2 WtCom= 0.00D+00 WtEn= 1.00D+00
 EnCoef did   100 forward-backward iterations
 Rare condition: small coef for last iteration:  0.131D-15
 Coeff-En:   0.000D+00 0.000D+00 0.000D+00 0.000D+00 0.000D+00 0.000D+00
 Coeff-En:   0.000D+00 0.000D+00 0.311D-01 0.213D-01 0.577D-01 0.578D-01
 Coeff-En:   0.485D-01 0.382D+00 0.162D+00 0.111D+00 0.129D+00
 Coeff:      0.000D+00 0.000D+00 0.000D+00 0.000D+00 0.000D+00 0.000D+00
 Coeff:      0.000D+00 0.000D+00 0.311D-01 0.213D-01 0.577D-01 0.578D-01
 Coeff:      0.485D-01 0.382D+00 0.162D+00 0.111D+00 0.129D+00
 Gap=     0.001 Goal=   None    Shift=    0.000
 RMSDP=7.21D-04 MaxDP=1.79D-02 DE=-1.36D-02 OVMax= 1.20D-01

 Cycle  22  Pass 1  IDiag  1:
 E= -387.474087569071     Delta-E=        0.004748082815 Rises=F Damp=F
 DIIS: error= 1.59D-02 at cycle  18 NSaved=  18.
 NSaved=18 IEnMin=14 EnMin= -387.527182547597     IErMin= 2 ErrMin= 6.46D-03
 ErrMax= 1.59D-02  0.00D+00 EMaxC= 1.00D-01 BMatC= 5.32D-02 BMatP= 1.55D-02
 IDIUse=2 WtCom= 0.00D+00 WtEn= 1.00D+00
 EnCoef did   100 forward-backward iterations
 Coeff-En:   0.000D+00 0.000D+00 0.000D+00 0.000D+00 0.000D+00 0.000D+00
 Coeff-En:   0.000D+00 0.449D-01 0.813D-03 0.476D-03 0.223D+00 0.237D+00
 Coeff-En:   0.110D+00 0.126D+00 0.198D+00 0.353D-01 0.426D-03 0.228D-01
 Coeff:      0.000D+00 0.000D+00 0.000D+00 0.000D+00 0.000D+00 0.000D+00
 Coeff:      0.000D+00 0.449D-01 0.813D-03 0.476D-03 0.223D+00 0.237D+00
 Coeff:      0.110D+00 0.126D+00 0.198D+00 0.353D-01 0.426D-03 0.228D-01
 Gap=     0.000 Goal=   None    Shift=    0.000
 RMSDP=4.46D-03 MaxDP=1.28D-01 DE= 4.75D-03 OVMax= 7.41D-01

 Cycle  23  Pass 1  IDiag  1:
 E= -387.464885726535     Delta-E=        0.009201842536 Rises=F Damp=F
 DIIS: error= 1.66D-02 at cycle  19 NSaved=  19.
 NSaved=19 IEnMin=14 EnMin= -387.527182547597     IErMin= 2 ErrMin= 6.46D-03
 ErrMax= 1.66D-02  0.00D+00 EMaxC= 1.00D-01 BMatC= 5.55D-02 BMatP= 1.55D-02
 IDIUse=2 WtCom= 0.00D+00 WtEn= 1.00D+00
 EnCoef did   100 forward-backward iterations
 Coeff-En:   0.000D+00 0.000D+00 0.000D+00 0.000D+00 0.000D+00 0.000D+00
 Coeff-En:   0.000D+00 0.708D-01 0.817D-03 0.478D-03 0.232D+00 0.257D+00
 Coeff-En:   0.118D+00 0.113D+00 0.176D+00 0.125D-03 0.427D-03 0.298D-03
 Coeff-En:   0.300D-01
 Coeff:      0.000D+00 0.000D+00 0.000D+00 0.000D+00 0.000D+00 0.000D+00
 Coeff:      0.000D+00 0.708D-01 0.817D-03 0.478D-03 0.232D+00 0.257D+00
 Coeff:      0.118D+00 0.113D+00 0.176D+00 0.125D-03 0.427D-03 0.298D-03
 Coeff:      0.300D-01
 Gap=     0.000 Goal=   None    Shift=    0.000
 RMSDP=1.27D-03 MaxDP=4.79D-02 DE= 9.20D-03 OVMax= 2.11D-01

 Cycle  24  Pass 1  IDiag  1:
 E= -387.467270390962     Delta-E=       -0.002384664427 Rises=F Damp=F
 DIIS: error= 1.91D-02 at cycle  20 NSaved=  20.
 NSaved=20 IEnMin=14 EnMin= -387.527182547597     IErMin= 2 ErrMin= 6.46D-03
 ErrMax= 1.91D-02  0.00D+00 EMaxC= 1.00D-01 BMatC= 5.56D-02 BMatP= 1.55D-02
 IDIUse=2 WtCom= 0.00D+00 WtEn= 1.00D+00
 EnCoef did   100 forward-backward iterations
 Rare condition: small coef for last iteration:  0.330D-14
 Coeff-En:   0.000D+00 0.000D+00 0.000D+00 0.000D+00 0.000D+00 0.000D+00
 Coeff-En:   0.000D+00 0.000D+00 0.315D-01 0.223D-01 0.599D-01 0.835D-01
 Coeff-En:   0.476D-01 0.375D+00 0.177D+00 0.545D-01 0.320D-01 0.604D-01
 Coeff-En:   0.235D-01 0.326D-01
 Coeff:      0.000D+00 0.000D+00 0.000D+00 0.000D+00 0.000D+00 0.000D+00
 Coeff:      0.000D+00 0.000D+00 0.315D-01 0.223D-01 0.599D-01 0.835D-01
 Coeff:      0.476D-01 0.375D+00 0.177D+00 0.545D-01 0.320D-01 0.604D-01
 Coeff:      0.235D-01 0.326D-01
 Gap=    -0.001 Goal=   None    Shift=    0.000
 RMSDP=5.31D-03 MaxDP=1.51D-01 DE=-2.38D-03 OVMax= 8.84D-01

 Cycle  25  Pass 1  IDiag  1:
 E= -387.478787670025     Delta-E=       -0.011517279063 Rises=F Damp=F
 DIIS: error= 1.57D-02 at cycle  21 NSaved=  20.
 NSaved=20 IEnMin=14 EnMin= -387.527182547597     IErMin= 2 ErrMin= 6.46D-03
 ErrMax= 1.57D-02  0.00D+00 EMaxC= 1.00D-01 BMatC= 5.10D-02 BMatP= 1.55D-02
 IDIUse=2 WtCom= 0.00D+00 WtEn= 1.00D+00
 EnCoef did   100 forward-backward iterations
 Coeff-En:   0.000D+00 0.000D+00 0.000D+00 0.000D+00 0.000D+00 0.000D+00
 Coeff-En:   0.000D+00 0.488D-01 0.128D-02 0.115D-02 0.215D+00 0.223D+00
 Coeff-En:   0.111D+00 0.136D+00 0.207D+00 0.125D-02 0.878D-04 0.316D-01
 Coeff-En:   0.195D-01 0.481D-02
 Coeff:      0.000D+00 0.000D+00 0.000D+00 0.000D+00 0.000D+00 0.000D+00
 Coeff:      0.000D+00 0.488D-01 0.128D-02 0.115D-02 0.215D+00 0.223D+00
 Coeff:      0.111D+00 0.136D+00 0.207D+00 0.125D-02 0.878D-04 0.316D-01
 Coeff:      0.195D-01 0.481D-02
 Gap=     0.000 Goal=   None    Shift=    0.000
 RMSDP=4.66D-03 MaxDP=1.35D-01 DE=-1.15D-02 OVMax= 7.75D-01

 Cycle  26  Pass 1  IDiag  1:
 E= -387.467927879354     Delta-E=        0.010859790671 Rises=F Damp=F
 DIIS: error= 1.66D-02 at cycle  22 NSaved=  20.
 NSaved=20 IEnMin=14 EnMin= -387.527182547597     IErMin= 2 ErrMin= 6.46D-03
 ErrMax= 1.66D-02  0.00D+00 EMaxC= 1.00D-01 BMatC= 5.42D-02 BMatP= 1.55D-02
 IDIUse=2 WtCom= 0.00D+00 WtEn= 1.00D+00
 EnCoef did   100 forward-backward iterations
 Coeff-En:   0.000D+00 0.000D+00 0.000D+00 0.000D+00 0.000D+00 0.000D+00
 Coeff-En:   0.000D+00 0.698D-01 0.316D-04 0.121D-02 0.233D+00 0.258D+00
 Coeff-En:   0.118D+00 0.112D+00 0.177D+00 0.424D-04 0.919D-04 0.200D-03
 Coeff-En:   0.260D-04 0.303D-01
 Coeff:      0.000D+00 0.000D+00 0.000D+00 0.000D+00 0.000D+00 0.000D+00
 Coeff:      0.000D+00 0.698D-01 0.316D-04 0.121D-02 0.233D+00 0.258D+00
 Coeff:      0.118D+00 0.112D+00 0.177D+00 0.424D-04 0.919D-04 0.200D-03
 Coeff:      0.260D-04 0.303D-01
 Gap=     0.000 Goal=   None    Shift=    0.000
 RMSDP=1.35D-03 MaxDP=5.01D-02 DE= 1.09D-02 OVMax= 2.24D-01

 Cycle  27  Pass 1  IDiag  1:
 E= -387.467317477225     Delta-E=        0.000610402130 Rises=F Damp=F
 DIIS: error= 1.91D-02 at cycle  23 NSaved=  20.
 NSaved=20 IEnMin=14 EnMin= -387.527182547597     IErMin= 2 ErrMin= 6.46D-03
 ErrMax= 1.91D-02  0.00D+00 EMaxC= 1.00D-01 BMatC= 5.56D-02 BMatP= 1.55D-02
 IDIUse=2 WtCom= 0.00D+00 WtEn= 1.00D+00
 EnCoef did   100 forward-backward iterations
 Coeff-En:   0.000D+00 0.000D+00 0.000D+00 0.000D+00 0.000D+00 0.000D+00
 Coeff-En:   0.000D+00 0.780D-01 0.311D-04 0.119D-02 0.230D+00 0.260D+00
 Coeff-En:   0.129D+00 0.115D+00 0.169D+00 0.417D-04 0.905D-04 0.197D-03
 Coeff-En:   0.186D-01 0.256D-04
 Coeff:      0.000D+00 0.000D+00 0.000D+00 0.000D+00 0.000D+00 0.000D+00
 Coeff:      0.000D+00 0.780D-01 0.311D-04 0.119D-02 0.230D+00 0.260D+00
 Coeff:      0.129D+00 0.115D+00 0.169D+00 0.417D-04 0.905D-04 0.197D-03
 Coeff:      0.186D-01 0.256D-04
 Gap=     0.000 Goal=   None    Shift=    0.000
 RMSDP=7.07D-05 MaxDP=2.60D-03 DE= 6.10D-04 OVMax= 1.18D-02

 Cycle  28  Pass 1  IDiag  1:
 E= -387.467508535923     Delta-E=       -0.000191058698 Rises=F Damp=F
 DIIS: error= 1.91D-02 at cycle  24 NSaved=  20.
 NSaved=20 IEnMin=14 EnMin= -387.527182547597     IErMin= 2 ErrMin= 6.46D-03
 ErrMax= 1.91D-02  0.00D+00 EMaxC= 1.00D-01 BMatC= 5.55D-02 BMatP= 1.55D-02
 IDIUse=2 WtCom= 0.00D+00 WtEn= 1.00D+00
 EnCoef did   100 forward-backward iterations
 Coeff-En:   0.000D+00 0.000D+00 0.000D+00 0.000D+00 0.000D+00 0.000D+00
 Coeff-En:   0.000D+00 0.892D-01 0.306D-04 0.132D-03 0.222D+00 0.262D+00
 Coeff-En:   0.148D+00 0.122D+00 0.156D+00 0.411D-04 0.891D-04 0.194D-03
 Coeff-En:   0.252D-04 0.209D-03
 Coeff:      0.000D+00 0.000D+00 0.000D+00 0.000D+00 0.000D+00 0.000D+00
 Coeff:      0.000D+00 0.892D-01 0.306D-04 0.132D-03 0.222D+00 0.262D+00
 Coeff:      0.148D+00 0.122D+00 0.156D+00 0.411D-04 0.891D-04 0.194D-03
 Coeff:      0.252D-04 0.209D-03
 Gap=     0.000 Goal=   None    Shift=    0.000
 RMSDP=1.06D-04 MaxDP=3.93D-03 DE=-1.91D-04 OVMax= 1.76D-02

 Cycle  29  Pass 1  IDiag  1:
 E= -387.467608552028     Delta-E=       -0.000100016105 Rises=F Damp=F
 DIIS: error= 1.91D-02 at cycle  25 NSaved=  20.
 NSaved=20 IEnMin=14 EnMin= -387.527182547597     IErMin= 2 ErrMin= 6.46D-03
 ErrMax= 1.91D-02  0.00D+00 EMaxC= 1.00D-01 BMatC= 5.54D-02 BMatP= 1.55D-02
 IDIUse=2 WtCom= 0.00D+00 WtEn= 1.00D+00
 EnCoef did    18 forward-backward iterations
 Coeff-En:   0.000D+00 0.000D+00 0.000D+00 0.000D+00 0.000D+00 0.000D+00
 Coeff-En:   0.000D+00 0.906D-01 0.306D-04 0.132D-03 0.222D+00 0.263D+00
 Coeff-En:   0.148D+00 0.122D+00 0.154D+00 0.411D-04 0.891D-04 0.194D-03
 Coeff-En:   0.209D-03 0.252D-04
 Coeff:      0.000D+00 0.000D+00 0.000D+00 0.000D+00 0.000D+00 0.000D+00
 Coeff:      0.000D+00 0.906D-01 0.306D-04 0.132D-03 0.222D+00 0.263D+00
 Coeff:      0.148D+00 0.122D+00 0.154D+00 0.411D-04 0.891D-04 0.194D-03
 Coeff:      0.209D-03 0.252D-04
 Gap=     0.000 Goal=   None    Shift=    0.000
 RMSDP=6.31D-04 MaxDP=2.26D-02 DE=-1.00D-04 OVMax= 1.05D-01

 Cycle  30  Pass 1  IDiag  1:
 E= -387.465567651466     Delta-E=        0.002040900562 Rises=F Damp=F
 DIIS: error= 1.85D-02 at cycle  26 NSaved=  20.
 NSaved=20 IEnMin=13 EnMin= -387.527182547597     IErMin= 1 ErrMin= 6.46D-03
 ErrMax= 1.85D-02  0.00D+00 EMaxC= 1.00D-01 BMatC= 5.62D-02 BMatP= 1.55D-02
 IDIUse=2 WtCom= 0.00D+00 WtEn= 1.00D+00
 Rare condition: small coef for last iteration:  0.222D-15
 Coeff-En:   0.000D+00 0.000D+00 0.000D+00 0.000D+00 0.000D+00 0.000D+00
 Coeff-En:   0.000D+00 0.308D-01 0.219D-01 0.579D-01 0.768D-01 0.433D-01
 Coeff-En:   0.378D+00 0.175D+00 0.334D-01 0.307D-01 0.794D-01 0.000D+00
 Coeff-En:   0.547D-01 0.184D-01
 Coeff:      0.000D+00 0.000D+00 0.000D+00 0.000D+00 0.000D+00 0.000D+00
 Coeff:      0.000D+00 0.308D-01 0.219D-01 0.579D-01 0.768D-01 0.433D-01
 Coeff:      0.378D+00 0.175D+00 0.334D-01 0.307D-01 0.794D-01 0.000D+00
 Coeff:      0.547D-01 0.184D-01
 Gap=    -0.001 Goal=   None    Shift=    0.000
 RMSDP=5.53D-03 MaxDP=1.74D-01 DE= 2.04D-03 OVMax= 9.20D-01

 Cycle  31  Pass 1  IDiag  1:
 E= -387.477375457306     Delta-E=       -0.011807805841 Rises=F Damp=F
 DIIS: error= 1.58D-02 at cycle  27 NSaved=  20.
 NSaved=20 IEnMin=13 EnMin= -387.527182547597     IErMin= 1 ErrMin= 6.46D-03
 ErrMax= 1.58D-02  0.00D+00 EMaxC= 1.00D-01 BMatC= 5.16D-02 BMatP= 1.55D-02
 IDIUse=2 WtCom= 0.00D+00 WtEn= 1.00D+00
 EnCoef did   100 forward-backward iterations
 Coeff-En:   0.000D+00 0.000D+00 0.000D+00 0.000D+00 0.000D+00 0.000D+00
 Coeff-En:   0.352D-01 0.114D-02 0.842D-03 0.216D+00 0.218D+00 0.101D+00
 Coeff-En:   0.136D+00 0.212D+00 0.103D-04 0.175D-04 0.997D-03 0.000D+00
 Coeff-En:   0.352D-01 0.421D-01
 Coeff:      0.000D+00 0.000D+00 0.000D+00 0.000D+00 0.000D+00 0.000D+00
 Coeff:      0.352D-01 0.114D-02 0.842D-03 0.216D+00 0.218D+00 0.101D+00
 Coeff:      0.136D+00 0.212D+00 0.103D-04 0.175D-04 0.997D-03 0.000D+00
 Coeff:      0.352D-01 0.421D-01
 Gap=     0.000 Goal=   None    Shift=    0.000
 RMSDP=4.45D-03 MaxDP=1.30D-01 DE=-1.18D-02 OVMax= 7.40D-01

 Cycle  32  Pass 1  IDiag  1:
 E= -387.463197661593     Delta-E=        0.014177795714 Rises=F Damp=F
 DIIS: error= 1.61D-02 at cycle  28 NSaved=  20.
 NSaved=20 IEnMin=13 EnMin= -387.527182547597     IErMin= 1 ErrMin= 6.46D-03
 ErrMax= 1.61D-02  0.00D+00 EMaxC= 1.00D-01 BMatC= 5.61D-02 BMatP= 1.55D-02
 IDIUse=2 WtCom= 0.00D+00 WtEn= 1.00D+00
 EnCoef did    68 forward-backward iterations
 Coeff-En:   0.000D+00 0.000D+00 0.000D+00 0.000D+00 0.000D+00 0.000D+00
 Coeff-En:   0.563D-01 0.134D-02 0.880D-03 0.240D+00 0.251D+00 0.911D-01
 Coeff-En:   0.108D+00 0.194D+00 0.108D-04 0.183D-04 0.997D-03 0.143D-03
 Coeff-En:   0.938D-03 0.559D-01
 Coeff:      0.000D+00 0.000D+00 0.000D+00 0.000D+00 0.000D+00 0.000D+00
 Coeff:      0.563D-01 0.134D-02 0.880D-03 0.240D+00 0.251D+00 0.911D-01
 Coeff:      0.108D+00 0.194D+00 0.108D-04 0.183D-04 0.997D-03 0.143D-03
 Coeff:      0.938D-03 0.559D-01
 Gap=     0.000 Goal=   None    Shift=    0.000
 RMSDP=2.09D-03 MaxDP=7.90D-02 DE= 1.42D-02 OVMax= 3.47D-01

 Cycle  33  Pass 1  IDiag  1:
 E= -387.464132744536     Delta-E=       -0.000935082943 Rises=F Damp=F
 DIIS: error= 1.84D-02 at cycle  29 NSaved=  20.
 NSaved=20 IEnMin=12 EnMin= -387.527182547597     IErMin= 1 ErrMin= 6.46D-03
 ErrMax= 1.84D-02  0.00D+00 EMaxC= 1.00D-01 BMatC= 5.69D-02 BMatP= 1.55D-02
 IDIUse=2 WtCom= 0.00D+00 WtEn= 1.00D+00
 Rare condition: small coef for last iteration:  0.189D-14
 Coeff-En:   0.000D+00 0.000D+00 0.000D+00 0.000D+00 0.000D+00 0.000D+00
 Coeff-En:   0.312D-01 0.221D-01 0.589D-01 0.783D-01 0.453D-01 0.377D+00
 Coeff-En:   0.175D+00 0.382D-01 0.303D-01 0.358D-02 0.111D-01 0.661D-01
 Coeff-En:   0.307D-01 0.321D-01
 Coeff:      0.000D+00 0.000D+00 0.000D+00 0.000D+00 0.000D+00 0.000D+00
 Coeff:      0.312D-01 0.221D-01 0.589D-01 0.783D-01 0.453D-01 0.377D+00
 Coeff:      0.175D+00 0.382D-01 0.303D-01 0.358D-02 0.111D-01 0.661D-01
 Coeff:      0.307D-01 0.321D-01
 Gap=    -0.002 Goal=   None    Shift=    0.000
 RMSDP=5.59D-03 MaxDP=1.77D-01 DE=-9.35D-04 OVMax= 9.30D-01

 Cycle  34  Pass 1  IDiag  1:
 E= -387.478072131531     Delta-E=       -0.013939386996 Rises=F Damp=F
 DIIS: error= 1.57D-02 at cycle  30 NSaved=  20.
 NSaved=20 IEnMin=12 EnMin= -387.527182547597     IErMin= 1 ErrMin= 6.46D-03
 ErrMax= 1.57D-02  0.00D+00 EMaxC= 1.00D-01 BMatC= 5.13D-02 BMatP= 1.55D-02
 IDIUse=2 WtCom= 0.00D+00 WtEn= 1.00D+00
 EnCoef did   100 forward-backward iterations
 Coeff-En:   0.000D+00 0.000D+00 0.000D+00 0.000D+00 0.000D+00 0.345D-01
 Coeff-En:   0.235D-02 0.863D-03 0.216D+00 0.218D+00 0.101D+00 0.135D+00
 Coeff-En:   0.210D+00 0.916D-04 0.264D-03 0.504D-03 0.000D+00 0.110D-02
 Coeff-En:   0.377D-01 0.419D-01
 Coeff:      0.000D+00 0.000D+00 0.000D+00 0.000D+00 0.000D+00 0.345D-01
 Coeff:      0.235D-02 0.863D-03 0.216D+00 0.218D+00 0.101D+00 0.135D+00
 Coeff:      0.210D+00 0.916D-04 0.264D-03 0.504D-03 0.000D+00 0.110D-02
 Coeff:      0.377D-01 0.419D-01
 Gap=     0.000 Goal=   None    Shift=    0.000
 RMSDP=4.39D-03 MaxDP=1.30D-01 DE=-1.39D-02 OVMax= 7.31D-01

 Cycle  35  Pass 1  IDiag  1:
 E= -387.461266694556     Delta-E=        0.016805436975 Rises=F Damp=F
 DIIS: error= 1.58D-02 at cycle  31 NSaved=  20.
 NSaved=20 IEnMin=12 EnMin= -387.527182547597     IErMin= 1 ErrMin= 6.46D-03
 ErrMax= 1.58D-02  0.00D+00 EMaxC= 1.00D-01 BMatC= 5.68D-02 BMatP= 1.55D-02
 IDIUse=2 WtCom= 0.00D+00 WtEn= 1.00D+00
 EnCoef did    51 forward-backward iterations
 Coeff-En:   0.000D+00 0.000D+00 0.000D+00 0.000D+00 0.000D+00 0.541D-01
 Coeff-En:   0.947D-03 0.904D-03 0.240D+00 0.248D+00 0.857D-01 0.109D+00
 Coeff-En:   0.198D+00 0.960D-04 0.276D-03 0.102D-02 0.000D+00 0.102D-02
 Coeff-En:   0.735D-03 0.598D-01
 Coeff:      0.000D+00 0.000D+00 0.000D+00 0.000D+00 0.000D+00 0.541D-01
 Coeff:      0.947D-03 0.904D-03 0.240D+00 0.248D+00 0.857D-01 0.109D+00
 Coeff:      0.198D+00 0.960D-04 0.276D-03 0.102D-02 0.000D+00 0.102D-02
 Coeff:      0.735D-03 0.598D-01
 Gap=     0.000 Goal=   None    Shift=    0.000
 RMSDP=2.67D-03 MaxDP=9.99D-02 DE= 1.68D-02 OVMax= 4.44D-01

 Cycle  36  Pass 1  IDiag  1:
 E= -387.459540239589     Delta-E=        0.001726454967 Rises=F Damp=F
 DIIS: error= 1.68D-02 at cycle  32 NSaved=  20.
 NSaved=20 IEnMin=11 EnMin= -387.527182547597     IErMin=11 ErrMin= 9.95D-03
 ErrMax= 1.68D-02  0.00D+00 EMaxC= 1.00D-01 BMatC= 5.84D-02 BMatP= 2.06D-02
 IDIUse=2 WtCom= 0.00D+00 WtEn= 1.00D+00
 EnCoef did   100 forward-backward iterations
 Coeff-En:   0.000D+00 0.000D+00 0.000D+00 0.000D+00 0.514D-01 0.953D-03
 Coeff-En:   0.910D-03 0.241D+00 0.254D+00 0.893D-01 0.106D+00 0.189D+00
 Coeff-En:   0.966D-04 0.278D-03 0.103D-02 0.000D+00 0.103D-02 0.740D-03
 Coeff-En:   0.466D-01 0.175D-01
 Coeff:      0.000D+00 0.000D+00 0.000D+00 0.000D+00 0.514D-01 0.953D-03
 Coeff:      0.910D-03 0.241D+00 0.254D+00 0.893D-01 0.106D+00 0.189D+00
 Coeff:      0.966D-04 0.278D-03 0.103D-02 0.000D+00 0.103D-02 0.740D-03
 Coeff:      0.466D-01 0.175D-01
 Gap=     0.000 Goal=   None    Shift=    0.000
 RMSDP=1.10D-03 MaxDP=3.65D-02 DE= 1.73D-03 OVMax= 1.82D-01

 Cycle  37  Pass 1  IDiag  1:
 E= -387.465811596933     Delta-E=       -0.006271357344 Rises=F Damp=F
 DIIS: error= 1.92D-02 at cycle  33 NSaved=  20.
 NSaved=20 IEnMin=11 EnMin= -387.527182547597     IErMin=11 ErrMin= 9.95D-03
 ErrMax= 1.92D-02  0.00D+00 EMaxC= 1.00D-01 BMatC= 5.64D-02 BMatP= 2.06D-02
 IDIUse=2 WtCom= 0.00D+00 WtEn= 1.00D+00
 EnCoef did   100 forward-backward iterations
 Coeff-En:   0.000D+00 0.000D+00 0.000D+00 0.000D+00 0.302D-01 0.978D-03
 Coeff-En:   0.119D-02 0.242D+00 0.269D+00 0.105D+00 0.996D-01 0.172D+00
 Coeff-En:   0.991D-04 0.285D-03 0.359D-03 0.000D+00 0.263D-03 0.210D-03
 Coeff-En:   0.775D-01 0.456D-03
 Coeff:      0.000D+00 0.000D+00 0.000D+00 0.000D+00 0.302D-01 0.978D-03
 Coeff:      0.119D-02 0.242D+00 0.269D+00 0.105D+00 0.996D-01 0.172D+00
 Coeff:      0.991D-04 0.285D-03 0.359D-03 0.000D+00 0.263D-03 0.210D-03
 Coeff:      0.775D-01 0.456D-03
 Gap=     0.000 Goal=   None    Shift=    0.000
 RMSDP=8.74D-04 MaxDP=3.28D-02 DE=-6.27D-03 OVMax= 1.45D-01

 Cycle  38  Pass 1  IDiag  1:
 E= -387.462259088592     Delta-E=        0.003552508341 Rises=F Damp=F
 DIIS: error= 1.89D-02 at cycle  34 NSaved=  20.
 NSaved=20 IEnMin=11 EnMin= -387.527182547597     IErMin=11 ErrMin= 9.95D-03
 ErrMax= 1.89D-02  0.00D+00 EMaxC= 1.00D-01 BMatC= 5.76D-02 BMatP= 2.06D-02
 IDIUse=2 WtCom= 0.00D+00 WtEn= 1.00D+00
 EnCoef did   100 forward-backward iterations
 Coeff-En:   0.000D+00 0.000D+00 0.294D-02 0.000D+00 0.649D-01 0.125D-03
 Coeff-En:   0.999D-03 0.231D+00 0.259D+00 0.113D+00 0.112D+00 0.178D+00
 Coeff-En:   0.425D-04 0.240D-03 0.301D-03 0.000D+00 0.221D-03 0.176D-03
 Coeff-En:   0.397D-04 0.368D-01
 Coeff:      0.000D+00 0.000D+00 0.294D-02 0.000D+00 0.649D-01 0.125D-03
 Coeff:      0.999D-03 0.231D+00 0.259D+00 0.113D+00 0.112D+00 0.178D+00
 Coeff:      0.425D-04 0.240D-03 0.301D-03 0.000D+00 0.221D-03 0.176D-03
 Coeff:      0.397D-04 0.368D-01
 Gap=     0.000 Goal=   None    Shift=    0.000
 RMSDP=7.23D-04 MaxDP=1.91D-02 DE= 3.55D-03 OVMax= 1.20D-01

 Cycle  39  Pass 1  IDiag  1:
 E= -387.468404004213     Delta-E=       -0.006144915621 Rises=F Damp=F
 DIIS: error= 1.89D-02 at cycle  35 NSaved=  20.
 NSaved=20 IEnMin=11 EnMin= -387.527182547597     IErMin=11 ErrMin= 9.95D-03
 ErrMax= 1.89D-02  0.00D+00 EMaxC= 1.00D-01 BMatC= 5.49D-02 BMatP= 2.06D-02
 IDIUse=2 WtCom= 0.00D+00 WtEn= 1.00D+00
 EnCoef did   100 forward-backward iterations
 Coeff-En:   0.000D+00 0.000D+00 0.264D-02 0.000D+00 0.809D-01 0.112D-03
 Coeff-En:   0.897D-03 0.224D+00 0.260D+00 0.139D+00 0.118D+00 0.165D+00
 Coeff-En:   0.381D-04 0.215D-03 0.270D-03 0.000D+00 0.198D-03 0.158D-03
 Coeff-En:   0.911D-02 0.357D-04
 Coeff:      0.000D+00 0.000D+00 0.264D-02 0.000D+00 0.809D-01 0.112D-03
 Coeff:      0.897D-03 0.224D+00 0.260D+00 0.139D+00 0.118D+00 0.165D+00
 Coeff:      0.381D-04 0.215D-03 0.270D-03 0.000D+00 0.198D-03 0.158D-03
 Coeff:      0.911D-02 0.357D-04
 Gap=     0.000 Goal=   None    Shift=    0.000
 RMSDP=1.57D-04 MaxDP=5.08D-03 DE=-6.14D-03 OVMax= 2.61D-02

 Cycle  40  Pass 1  IDiag  1:
 E= -387.469533124528     Delta-E=       -0.001129120315 Rises=F Damp=F
 DIIS: error= 1.89D-02 at cycle  36 NSaved=  20.
 NSaved=20 IEnMin=11 EnMin= -387.527182547597     IErMin=11 ErrMin= 9.95D-03
 ErrMax= 1.89D-02  0.00D+00 EMaxC= 1.00D-01 BMatC= 5.44D-02 BMatP= 2.06D-02
 IDIUse=2 WtCom= 0.00D+00 WtEn= 1.00D+00
 EnCoef did   100 forward-backward iterations
 Coeff-En:   0.000D+00 0.000D+00 0.248D-02 0.000D+00 0.912D-01 0.106D-03
 Coeff-En:   0.141D-03 0.220D+00 0.263D+00 0.148D+00 0.121D+00 0.153D+00
 Coeff-En:   0.359D-04 0.202D-03 0.254D-03 0.000D+00 0.186D-03 0.149D-03
 Coeff-En:   0.336D-04 0.171D-03
 Coeff:      0.000D+00 0.000D+00 0.248D-02 0.000D+00 0.912D-01 0.106D-03
 Coeff:      0.141D-03 0.220D+00 0.263D+00 0.148D+00 0.121D+00 0.153D+00
 Coeff:      0.359D-04 0.202D-03 0.254D-03 0.000D+00 0.186D-03 0.149D-03
 Coeff:      0.336D-04 0.171D-03
 Gap=     0.000 Goal=   None    Shift=    0.000
 RMSDP=2.91D-04 MaxDP=7.02D-03 DE=-1.13D-03 OVMax= 4.84D-02

 Cycle  41  Pass 1  IDiag  1:
 E= -387.466824910929     Delta-E=        0.002708213599 Rises=F Damp=F
 DIIS: error= 1.92D-02 at cycle  37 NSaved=  20.
 NSaved=20 IEnMin=11 EnMin= -387.527182547597     IErMin=11 ErrMin= 9.95D-03
 ErrMax= 1.92D-02  0.00D+00 EMaxC= 1.00D-01 BMatC= 5.58D-02 BMatP= 2.06D-02
 IDIUse=2 WtCom= 0.00D+00 WtEn= 1.00D+00
 EnCoef did   100 forward-backward iterations
 Coeff-En:   0.000D+00 0.000D+00 0.239D-02 0.000D+00 0.921D-01 0.101D-03
 Coeff-En:   0.136D-03 0.221D+00 0.263D+00 0.148D+00 0.121D+00 0.152D+00
 Coeff-En:   0.345D-04 0.195D-03 0.245D-03 0.000D+00 0.179D-03 0.143D-03
 Coeff-En:   0.165D-03 0.323D-04
 Coeff:      0.000D+00 0.000D+00 0.239D-02 0.000D+00 0.921D-01 0.101D-03
 Coeff:      0.136D-03 0.221D+00 0.263D+00 0.148D+00 0.121D+00 0.152D+00
 Coeff:      0.345D-04 0.195D-03 0.245D-03 0.000D+00 0.179D-03 0.143D-03
 Coeff:      0.165D-03 0.323D-04
 Gap=     0.000 Goal=   None    Shift=    0.000
 RMSDP=6.37D-05 MaxDP=2.16D-03 DE= 2.71D-03 OVMax= 1.06D-02

 Cycle  42  Pass 1  IDiag  1:
 E= -387.466681625939     Delta-E=        0.000143284990 Rises=F Damp=F
 DIIS: error= 1.92D-02 at cycle  38 NSaved=  20.
 NSaved=20 IEnMin=11 EnMin= -387.527182547597     IErMin=11 ErrMin= 9.95D-03
 ErrMax= 1.92D-02  0.00D+00 EMaxC= 1.00D-01 BMatC= 5.59D-02 BMatP= 2.06D-02
 IDIUse=2 WtCom= 0.00D+00 WtEn= 1.00D+00
 EnCoef did   100 forward-backward iterations
 Coeff-En:   0.000D+00 0.000D+00 0.230D-02 0.000D+00 0.922D-01 0.977D-04
 Coeff-En:   0.131D-03 0.221D+00 0.263D+00 0.148D+00 0.121D+00 0.151D+00
 Coeff-En:   0.333D-04 0.187D-03 0.236D-03 0.000D+00 0.173D-03 0.138D-03
 Coeff-En:   0.311D-04 0.159D-03
 Coeff:      0.000D+00 0.000D+00 0.230D-02 0.000D+00 0.922D-01 0.977D-04
 Coeff:      0.131D-03 0.221D+00 0.263D+00 0.148D+00 0.121D+00 0.151D+00
 Coeff:      0.333D-04 0.187D-03 0.236D-03 0.000D+00 0.173D-03 0.138D-03
 Coeff:      0.311D-04 0.159D-03
 Gap=     0.000 Goal=   None    Shift=    0.000
 RMSDP=7.12D-05 MaxDP=2.64D-03 DE= 1.43D-04 OVMax= 1.18D-02

 Cycle  43  Pass 1  IDiag  1:
 E= -387.466601064280     Delta-E=        0.000080561659 Rises=F Damp=F
 DIIS: error= 1.92D-02 at cycle  39 NSaved=  20.
 NSaved=20 IEnMin=11 EnMin= -387.527182547597     IErMin=11 ErrMin= 9.95D-03
 ErrMax= 1.92D-02  0.00D+00 EMaxC= 1.00D-01 BMatC= 5.59D-02 BMatP= 2.06D-02
 IDIUse=2 WtCom= 0.00D+00 WtEn= 1.00D+00
 EnCoef did   100 forward-backward iterations
 Coeff-En:   0.000D+00 0.000D+00 0.222D-02 0.000D+00 0.922D-01 0.943D-04
 Coeff-En:   0.126D-03 0.221D+00 0.263D+00 0.148D+00 0.121D+00 0.151D+00
 Coeff-En:   0.321D-04 0.181D-03 0.227D-03 0.000D+00 0.167D-03 0.133D-03
 Coeff-En:   0.153D-03 0.300D-04
 Coeff:      0.000D+00 0.000D+00 0.222D-02 0.000D+00 0.922D-01 0.943D-04
 Coeff:      0.126D-03 0.221D+00 0.263D+00 0.148D+00 0.121D+00 0.151D+00
 Coeff:      0.321D-04 0.181D-03 0.227D-03 0.000D+00 0.167D-03 0.133D-03
 Coeff:      0.153D-03 0.300D-04
 Gap=     0.000 Goal=   None    Shift=    0.000
 RMSDP=7.73D-05 MaxDP=2.86D-03 DE= 8.06D-05 OVMax= 1.29D-02

 Cycle  44  Pass 1  IDiag  1:
 E= -387.466690447349     Delta-E=       -0.000089383069 Rises=F Damp=F
 DIIS: error= 1.92D-02 at cycle  40 NSaved=  20.
 NSaved=20 IEnMin=11 EnMin= -387.527182547597     IErMin=11 ErrMin= 9.95D-03
 ErrMax= 1.92D-02  0.00D+00 EMaxC= 1.00D-01 BMatC= 5.59D-02 BMatP= 2.06D-02
 IDIUse=2 WtCom= 0.00D+00 WtEn= 1.00D+00
 EnCoef did   100 forward-backward iterations
 Coeff-En:   0.000D+00 0.000D+00 0.214D-02 0.000D+00 0.920D-01 0.912D-04
 Coeff-En:   0.122D-03 0.221D+00 0.263D+00 0.148D+00 0.121D+00 0.152D+00
 Coeff-En:   0.310D-04 0.175D-03 0.220D-03 0.000D+00 0.161D-03 0.129D-03
 Coeff-En:   0.290D-04 0.148D-03
 Coeff:      0.000D+00 0.000D+00 0.214D-02 0.000D+00 0.920D-01 0.912D-04
 Coeff:      0.122D-03 0.221D+00 0.263D+00 0.148D+00 0.121D+00 0.152D+00
 Coeff:      0.310D-04 0.175D-03 0.220D-03 0.000D+00 0.161D-03 0.129D-03
 Coeff:      0.290D-04 0.148D-03
 Gap=     0.000 Goal=   None    Shift=    0.000
 RMSDP=2.75D-04 MaxDP=1.00D-02 DE=-8.94D-05 OVMax= 4.57D-02

 Cycle  45  Pass 1  IDiag  1:
 E= -387.466383453945     Delta-E=        0.000306993403 Rises=F Damp=F
 DIIS: error= 1.91D-02 at cycle  41 NSaved=  20.
 NSaved=20 IEnMin=11 EnMin= -387.527182547597     IErMin=11 ErrMin= 9.95D-03
 ErrMax= 1.91D-02  0.00D+00 EMaxC= 1.00D-01 BMatC= 5.60D-02 BMatP= 2.06D-02
 IDIUse=2 WtCom= 0.00D+00 WtEn= 1.00D+00
 EnCoef did   100 forward-backward iterations
 Coeff-En:   0.000D+00 0.000D+00 0.208D-02 0.000D+00 0.922D-01 0.882D-04
 Coeff-En:   0.118D-03 0.221D+00 0.263D+00 0.148D+00 0.121D+00 0.151D+00
 Coeff-En:   0.300D-04 0.169D-03 0.213D-03 0.000D+00 0.156D-03 0.124D-03
 Coeff-En:   0.143D-03 0.281D-04
 Coeff:      0.000D+00 0.000D+00 0.208D-02 0.000D+00 0.922D-01 0.882D-04
 Coeff:      0.118D-03 0.221D+00 0.263D+00 0.148D+00 0.121D+00 0.151D+00
 Coeff:      0.300D-04 0.169D-03 0.213D-03 0.000D+00 0.156D-03 0.124D-03
 Coeff:      0.143D-03 0.281D-04
 Gap=     0.000 Goal=   None    Shift=    0.000
 RMSDP=1.92D-04 MaxDP=6.98D-03 DE= 3.07D-04 OVMax= 3.20D-02

 Cycle  46  Pass 1  IDiag  1:
 E= -387.466735679616     Delta-E=       -0.000352225671 Rises=F Damp=F
 DIIS: error= 1.92D-02 at cycle  42 NSaved=  20.
 NSaved=20 IEnMin=11 EnMin= -387.527182547597     IErMin=11 ErrMin= 9.95D-03
 ErrMax= 1.92D-02  0.00D+00 EMaxC= 1.00D-01 BMatC= 5.59D-02 BMatP= 2.06D-02
 IDIUse=2 WtCom= 0.00D+00 WtEn= 1.00D+00
 EnCoef did   100 forward-backward iterations
 Coeff-En:   0.000D+00 0.000D+00 0.201D-02 0.000D+00 0.923D-01 0.855D-04
 Coeff-En:   0.115D-03 0.221D+00 0.263D+00 0.148D+00 0.121D+00 0.151D+00
 Coeff-En:   0.291D-04 0.164D-03 0.206D-03 0.000D+00 0.151D-03 0.121D-03
 Coeff-En:   0.272D-04 0.139D-03
 Coeff:      0.000D+00 0.000D+00 0.201D-02 0.000D+00 0.923D-01 0.855D-04
 Coeff:      0.115D-03 0.221D+00 0.263D+00 0.148D+00 0.121D+00 0.151D+00
 Coeff:      0.291D-04 0.164D-03 0.206D-03 0.000D+00 0.151D-03 0.121D-03
 Coeff:      0.272D-04 0.139D-03
 Gap=     0.000 Goal=   None    Shift=    0.000
 RMSDP=1.44D-04 MaxDP=5.23D-03 DE=-3.52D-04 OVMax= 2.39D-02

 Cycle  47  Pass 1  IDiag  1:
 E= -387.466450462924     Delta-E=        0.000285216692 Rises=F Damp=F
 DIIS: error= 1.91D-02 at cycle  43 NSaved=  20.
 NSaved=20 IEnMin=11 EnMin= -387.527182547597     IErMin=11 ErrMin= 9.95D-03
 ErrMax= 1.91D-02  0.00D+00 EMaxC= 1.00D-01 BMatC= 5.60D-02 BMatP= 2.06D-02
 IDIUse=2 WtCom= 0.00D+00 WtEn= 1.00D+00
 EnCoef did   100 forward-backward iterations
 Coeff-En:   0.000D+00 0.000D+00 0.195D-02 0.000D+00 0.924D-01 0.830D-04
 Coeff-En:   0.111D-03 0.221D+00 0.263D+00 0.148D+00 0.121D+00 0.151D+00
 Coeff-En:   0.282D-04 0.159D-03 0.200D-03 0.000D+00 0.147D-03 0.117D-03
 Coeff-En:   0.135D-03 0.264D-04
 Coeff:      0.000D+00 0.000D+00 0.195D-02 0.000D+00 0.924D-01 0.830D-04
 Coeff:      0.111D-03 0.221D+00 0.263D+00 0.148D+00 0.121D+00 0.151D+00
 Coeff:      0.282D-04 0.159D-03 0.200D-03 0.000D+00 0.147D-03 0.117D-03
 Coeff:      0.135D-03 0.264D-04
 Gap=     0.000 Goal=   None    Shift=    0.000
 RMSDP=1.27D-04 MaxDP=4.62D-03 DE= 2.85D-04 OVMax= 2.11D-02

 Cycle  48  Pass 1  IDiag  1:
 E= -387.466690799779     Delta-E=       -0.000240336854 Rises=F Damp=F
 DIIS: error= 1.92D-02 at cycle  44 NSaved=  20.
 NSaved=20 IEnMin=11 EnMin= -387.527182547597     IErMin=11 ErrMin= 9.95D-03
 ErrMax= 1.92D-02  0.00D+00 EMaxC= 1.00D-01 BMatC= 5.59D-02 BMatP= 2.06D-02
 IDIUse=2 WtCom= 0.00D+00 WtEn= 1.00D+00
 EnCoef did   100 forward-backward iterations
 Coeff-En:   0.000D+00 0.000D+00 0.190D-02 0.000D+00 0.923D-01 0.807D-04
 Coeff-En:   0.108D-03 0.221D+00 0.263D+00 0.148D+00 0.121D+00 0.151D+00
 Coeff-En:   0.274D-04 0.155D-03 0.194D-03 0.000D+00 0.143D-03 0.114D-03
 Coeff-En:   0.257D-04 0.131D-03
 Coeff:      0.000D+00 0.000D+00 0.190D-02 0.000D+00 0.923D-01 0.807D-04
 Coeff:      0.108D-03 0.221D+00 0.263D+00 0.148D+00 0.121D+00 0.151D+00
 Coeff:      0.274D-04 0.155D-03 0.194D-03 0.000D+00 0.143D-03 0.114D-03
 Coeff:      0.257D-04 0.131D-03
 Gap=     0.000 Goal=   None    Shift=    0.000
 RMSDP=7.81D-05 MaxDP=2.87D-03 DE=-2.40D-04 OVMax= 1.30D-02

 Cycle  49  Pass 1  IDiag  1:
 E= -387.466702731005     Delta-E=       -0.000011931226 Rises=F Damp=F
 DIIS: error= 1.92D-02 at cycle  45 NSaved=  20.
 NSaved=20 IEnMin=11 EnMin= -387.527182547597     IErMin=11 ErrMin= 9.95D-03
 ErrMax= 1.92D-02  0.00D+00 EMaxC= 1.00D-01 BMatC= 5.59D-02 BMatP= 2.06D-02
 IDIUse=2 WtCom= 0.00D+00 WtEn= 1.00D+00
 EnCoef did    66 forward-backward iterations
 Coeff-En:   0.000D+00 0.000D+00 0.186D-02 0.000D+00 0.921D-01 0.792D-04
 Coeff-En:   0.106D-03 0.221D+00 0.263D+00 0.148D+00 0.121D+00 0.152D+00
 Coeff-En:   0.269D-04 0.152D-03 0.191D-03 0.000D+00 0.140D-03 0.112D-03
 Coeff-En:   0.129D-03 0.252D-04
 Coeff:      0.000D+00 0.000D+00 0.186D-02 0.000D+00 0.921D-01 0.792D-04
 Coeff:      0.106D-03 0.221D+00 0.263D+00 0.148D+00 0.121D+00 0.152D+00
 Coeff:      0.269D-04 0.152D-03 0.191D-03 0.000D+00 0.140D-03 0.112D-03
 Coeff:      0.129D-03 0.252D-04
 Gap=     0.000 Goal=   None    Shift=    0.000
 RMSDP=3.25D-04 MaxDP=1.17D-02 DE=-1.19D-05 OVMax= 5.40D-02

 Cycle  50  Pass 1  IDiag  1:
 E= -387.466304125732     Delta-E=        0.000398605272 Rises=F Damp=F
 DIIS: error= 1.90D-02 at cycle  46 NSaved=  20.
 NSaved=20 IEnMin=10 EnMin= -387.527182547597     IErMin=10 ErrMin= 9.95D-03
 ErrMax= 1.90D-02  0.00D+00 EMaxC= 1.00D-01 BMatC= 5.60D-02 BMatP= 2.06D-02
 IDIUse=2 WtCom= 0.00D+00 WtEn= 1.00D+00
 Rare condition: small coef for last iteration: -0.444D-15
 Coeff-En:   0.000D+00 0.000D+00 0.000D+00 0.000D+00 0.307D-01 0.218D-01
 Coeff-En:   0.577D-01 0.743D-01 0.432D-01 0.378D+00 0.174D+00 0.279D-01
 Coeff-En:   0.204D-01 0.000D+00 0.000D+00 0.000D+00 0.923D-01 0.000D+00
 Coeff-En:   0.543D-01 0.254D-01
 Coeff:      0.000D+00 0.000D+00 0.000D+00 0.000D+00 0.307D-01 0.218D-01
 Coeff:      0.577D-01 0.743D-01 0.432D-01 0.378D+00 0.174D+00 0.279D-01
 Coeff:      0.204D-01 0.000D+00 0.000D+00 0.000D+00 0.923D-01 0.000D+00
 Coeff:      0.543D-01 0.254D-01
 Gap=    -0.001 Goal=   None    Shift=    0.000
 RMSDP=5.42D-03 MaxDP=1.65D-01 DE= 3.99D-04 OVMax= 9.02D-01

 Cycle  51  Pass 1  IDiag  1:
 E= -387.476741744798     Delta-E=       -0.010437619066 Rises=F Damp=F
 DIIS: error= 1.58D-02 at cycle  47 NSaved=  20.
 NSaved=20 IEnMin=10 EnMin= -387.527182547597     IErMin=10 ErrMin= 9.95D-03
 ErrMax= 1.58D-02  0.00D+00 EMaxC= 1.00D-01 BMatC= 5.19D-02 BMatP= 2.06D-02
 IDIUse=2 WtCom= 0.00D+00 WtEn= 1.00D+00
 EnCoef did   100 forward-backward iterations
 Coeff-En:   0.000D+00 0.000D+00 0.000D+00 0.404D-01 0.178D-02 0.383D-03
 Coeff-En:   0.216D+00 0.219D+00 0.105D+00 0.136D+00 0.210D+00 0.154D-04
 Coeff-En:   0.591D-03 0.347D-03 0.185D-04 0.935D-05 0.262D-04 0.000D+00
 Coeff-En:   0.304D-01 0.401D-01
 Coeff:      0.000D+00 0.000D+00 0.000D+00 0.404D-01 0.178D-02 0.383D-03
 Coeff:      0.216D+00 0.219D+00 0.105D+00 0.136D+00 0.210D+00 0.154D-04
 Coeff:      0.591D-03 0.347D-03 0.185D-04 0.935D-05 0.262D-04 0.000D+00
 Coeff:      0.304D-01 0.401D-01
 Gap=     0.000 Goal=   None    Shift=    0.000
 RMSDP=4.46D-03 MaxDP=1.30D-01 DE=-1.04D-02 OVMax= 7.41D-01

 Cycle  52  Pass 1  IDiag  1:
 E= -387.464662955711     Delta-E=        0.012078789087 Rises=F Damp=F
 DIIS: error= 1.61D-02 at cycle  48 NSaved=  20.
 NSaved=20 IEnMin=10 EnMin= -387.527182547597     IErMin=10 ErrMin= 9.95D-03
 ErrMax= 1.61D-02  0.00D+00 EMaxC= 1.00D-01 BMatC= 5.54D-02 BMatP= 2.06D-02
 IDIUse=2 WtCom= 0.00D+00 WtEn= 1.00D+00
 EnCoef did   100 forward-backward iterations
 Coeff-En:   0.000D+00 0.000D+00 0.000D+00 0.606D-01 0.480D-03 0.404D-03
 Coeff-En:   0.238D+00 0.254D+00 0.998D-01 0.109D+00 0.189D+00 0.163D-04
 Coeff-En:   0.261D-04 0.523D-03 0.195D-04 0.984D-05 0.276D-04 0.000D+00
 Coeff-En:   0.762D-03 0.480D-01
 Coeff:      0.000D+00 0.000D+00 0.000D+00 0.606D-01 0.480D-03 0.404D-03
 Coeff:      0.238D+00 0.254D+00 0.998D-01 0.109D+00 0.189D+00 0.163D-04
 Coeff:      0.261D-04 0.523D-03 0.195D-04 0.984D-05 0.276D-04 0.000D+00
 Coeff:      0.762D-03 0.480D-01
 Gap=     0.000 Goal=   None    Shift=    0.000
 RMSDP=1.80D-03 MaxDP=6.81D-02 DE= 1.21D-02 OVMax= 3.00D-01

 Cycle  53  Pass 1  IDiag  1:
 E= -387.465824020948     Delta-E=       -0.001161065237 Rises=F Damp=F
 DIIS: error= 1.89D-02 at cycle  49 NSaved=  20.
 NSaved=20 IEnMin=10 EnMin= -387.527182547597     IErMin=10 ErrMin= 9.95D-03
 ErrMax= 1.89D-02  0.00D+00 EMaxC= 1.00D-01 BMatC= 5.63D-02 BMatP= 2.06D-02
 IDIUse=2 WtCom= 0.00D+00 WtEn= 1.00D+00
 EnCoef did    49 forward-backward iterations
 Coeff-En:   0.000D+00 0.000D+00 0.000D+00 0.622D-01 0.480D-03 0.404D-03
 Coeff-En:   0.238D+00 0.255D+00 0.102D+00 0.109D+00 0.186D+00 0.163D-04
 Coeff-En:   0.261D-04 0.523D-03 0.195D-04 0.984D-05 0.276D-04 0.000D+00
 Coeff-En:   0.456D-01 0.343D-03
 Coeff:      0.000D+00 0.000D+00 0.000D+00 0.622D-01 0.480D-03 0.404D-03
 Coeff:      0.238D+00 0.255D+00 0.102D+00 0.109D+00 0.186D+00 0.163D-04
 Coeff:      0.261D-04 0.523D-03 0.195D-04 0.984D-05 0.276D-04 0.000D+00
[...]
    10  C   -0.055570  -0.018418  -0.000345   4.663802  -0.003044   0.006216
    11  H   -0.003021  -0.032757   0.006235  -0.003044   0.706276  -0.027819
    12  H    0.006239  -0.032758  -0.003016   0.006216  -0.027819   0.706254
    13  H   -0.000071   0.000876   0.006367  -0.004368  -0.000525  -0.000044
    14  H   -0.000071   0.000013  -0.004354   0.006340   0.000578   0.004471
    15  H    0.006222   0.000295   0.006217  -0.003021  -0.000018  -0.000018
    16  H   -0.003038  -0.007846  -0.003035   0.006245  -0.000018  -0.000018
    17  H    0.354140  -0.021235   0.006347  -0.004359   0.004465   0.000581
    18  H    0.353820  -0.027972  -0.004369   0.006364  -0.000039  -0.000529
    19  H   -0.004369  -0.027942   0.353826  -0.000070  -0.000528  -0.000039
    20  H    0.006343  -0.021215   0.354138  -0.000073   0.000580   0.004462
    21  H    0.006367   0.000877  -0.000071   0.354118  -0.000044  -0.000525
    22  H   -0.004363   0.000014  -0.000072   0.354057   0.004474   0.000577
              13         14         15         16         17         18
     1  C    0.006314  -0.004178  -0.000027  -0.000023  -0.004181   0.006346
     2  C   -0.028113  -0.021195  -0.007842   0.000335  -0.000031   0.000932
     3  C    0.354138   0.354034  -0.003017   0.006241  -0.000073  -0.000069
     4  C   -0.021311  -0.028026  -0.032912  -0.032749   0.000899  -0.000016
     5  C   -0.004165   0.006336   0.359307   0.359027   0.006315  -0.004168
     6  C   -0.000008   0.000898  -0.032915  -0.032790  -0.028099  -0.021187
     7  C   -0.000071  -0.000071   0.006222  -0.003038   0.354140   0.353820
     8  C    0.000876   0.000013   0.000295  -0.007846  -0.021235  -0.027972
     9  C    0.006367  -0.004354   0.006217  -0.003035   0.006347  -0.004369
    10  C   -0.004368   0.006340  -0.003021   0.006245  -0.004359   0.006364
    11  H   -0.000525   0.000578  -0.000018  -0.000018   0.004465  -0.000039
    12  H   -0.000044   0.004471  -0.000018  -0.000018   0.000581  -0.000529
    13  H    0.697238  -0.041142   0.004488   0.000581  -0.000015   0.000030
    14  H   -0.041142   0.697091  -0.000041  -0.000528   0.000030  -0.000015
    15  H    0.004488  -0.000041   0.706487  -0.027848  -0.000527   0.000578
    16  H    0.000581  -0.000528  -0.027848   0.706464  -0.000040   0.004459
    17  H   -0.000015   0.000030  -0.000527  -0.000040   0.697307  -0.041129
    18  H    0.000030  -0.000015   0.000578   0.004459  -0.041129   0.697430
    19  H   -0.000313  -0.000044   0.000578   0.004460  -0.000045   0.004268
    20  H   -0.000047   0.004278  -0.000527  -0.000039  -0.000311  -0.000045
    21  H    0.004311  -0.000049   0.004489   0.000580  -0.000047  -0.000312
    22  H   -0.000049  -0.000309  -0.000042  -0.000529   0.004281  -0.000045
              19         20         21         22
     1  C    0.006337  -0.004184   0.006313  -0.004184
     2  C    0.000931  -0.000030  -0.028088  -0.021186
     3  C    0.006372  -0.004368  -0.004376   0.006341
     4  C   -0.021210  -0.028074  -0.000004   0.000894
     5  C   -0.004181   0.006317  -0.004174   0.006337
     6  C   -0.000016   0.000900  -0.021286  -0.028025
     7  C   -0.004369   0.006343   0.006367  -0.004363
     8  C   -0.027942  -0.021215   0.000877   0.000014
     9  C    0.353826   0.354138  -0.000071  -0.000072
    10  C   -0.000070  -0.000073   0.354118   0.354057
    11  H   -0.000528   0.000580  -0.000044   0.004474
    12  H   -0.000039   0.004462  -0.000525   0.000577
    13  H   -0.000313  -0.000047   0.004311  -0.000049
    14  H   -0.000044   0.004278  -0.000049  -0.000309
    15  H    0.000578  -0.000527   0.004489  -0.000042
    16  H    0.004460  -0.000039   0.000580  -0.000529
    17  H   -0.000045  -0.000311  -0.000047   0.004281
    18  H    0.004268  -0.000045  -0.000312  -0.000045
    19  H    0.697371  -0.041125   0.000030  -0.000015
    20  H   -0.041125   0.697248  -0.000015   0.000030
    21  H    0.000030  -0.000015   0.697199  -0.041145
    22  H   -0.000015   0.000030  -0.041145   0.697040
 Mulliken charges:
               1
     1  C    0.092277
     2  C   -0.191533
     3  C    0.073829
     4  C   -0.191631
     5  C    0.092448
     6  C   -0.191654
     7  C    0.073817
     8  C   -0.192205
     9  C    0.073746
    10  C    0.073874
    11  H    0.020236
    12  H    0.020241
    13  H    0.025826
    14  H    0.025884
    15  H    0.020090
    16  H    0.020109
    17  H    0.025727
    18  H    0.025669
    19  H    0.025723
    20  H    0.025758
    21  H    0.025854
    22  H    0.025915
 Sum of Mulliken charges =   0.00000
 Mulliken charges with hydrogens summed into heavy atoms:
               1
     1  C    0.132755
     2  C   -0.191533
     3  C    0.125539
     4  C   -0.191631
     5  C    0.132648
     6  C   -0.191654
     7  C    0.125213
     8  C   -0.192205
     9  C    0.125227
    10  C    0.125642
 Electronic spatial extent (au):  <R**2>=           3541.5308
 Charge=              0.0000 electrons
 Dipole moment (field-independent basis, Debye):
    X=              0.0102    Y=              0.0008    Z=              0.0066  Tot=              0.0121
 Quadrupole moment (field-independent basis, Debye-Ang):
   XX=            -62.3247   YY=            -61.4624   ZZ=            -63.3028
   XY=              0.0944   XZ=              1.3178   YZ=             -0.1270
 Traceless Quadrupole moment (field-independent basis, Debye-Ang):
   XX=              0.0386   YY=              0.9009   ZZ=             -0.9395
   XY=              0.0944   XZ=              1.3178   YZ=             -0.1270
 Octapole moment (field-independent basis, Debye-Ang**2):
  XXX=           -594.6422  YYY=             -2.5284  ZZZ=              8.4255  XYY=           -186.1030
  XXY=              0.3030  XXZ=              8.1923  XZZ=           -191.9388  YZZ=              1.3029
  YYZ=             -7.5146  XYZ=             -0.4087
 Hexadecapole moment (field-independent basis, Debye-Ang**3):
 XXXX=          -4281.1606 YYYY=           -493.2824 ZZZZ=           -505.4120 XXXY=              0.3246
 XXXZ=             42.5848 YYYX=             -6.7982 YYYZ=             -0.5870 ZZZX=             26.5798
 ZZZY=             -0.3615 XXYY=           -726.0812 XXZZ=           -745.9429 YYZZ=           -166.5425
 XXYZ=             -1.3986 YYXZ=            -18.4930 ZZXY=              3.4064
 N-N= 5.362852633692D+02 E-N=-1.969917953208D+03  KE= 3.844058439138D+02
 Orbital energies and kinetic energies (alpha):
                                 1                 2
   1         O                -9.929886         15.958338
   2         O                -9.929475         15.958305
   3         O                -9.929425         15.958297
   4         O                -9.929111         15.958292
   5         O                -9.909975         15.951130
   6         O                -9.909939         15.950853
   7         O                -9.909700         15.951624
   8         O                -9.909673         15.951122
   9         O                -9.909639         15.950839
  10         O                -9.909573         15.951224
  11         O                -0.802022          1.225758
  12         O                -0.698691          1.401476
  13         O                -0.698537          1.401308
  14         O                -0.694270          1.406870
  15         O                -0.610288          1.411019
  16         O                -0.605431          1.414815
  17         O                -0.504578          1.369138
  18         O                -0.503305          1.383891
  19         O                -0.503213          1.384062
  20         O                -0.471121          0.995217
  21         O                -0.408247          0.972597
  22         O                -0.408218          0.972667
  23         O                -0.407131          0.983596
  24         O                -0.370857          1.151841
  25         O                -0.368179          1.151032
  26         O                -0.367998          1.151001
  27         O                -0.309652          1.177453
  28         O                -0.307571          1.182734
  29         O                -0.307353          1.183129
  30         O                -0.296876          1.337195
  31         O                -0.294379          1.268919
  32         O                -0.294264          1.334352
  33         O                -0.290197          1.271468
  34         O                -0.290070          1.271777
  35         O                -0.237287          1.432716
  36         O                -0.123960          1.426871
  37         V                -0.128446          1.428630
  38         V                -0.128256          1.428931
  39         V                 0.028117          0.784009
  40         V                 0.065141          0.823569
  41         V                 0.065507          0.811804
  42         V                 0.065559          0.812132
  43         V                 0.089266          0.886407
  44         V                 0.089321          0.886331
  45         V                 0.092038          0.881072
  46         V                 0.100644          1.013132
  47         V                 0.101997          1.029820
  48         V                 0.139099          0.954440
  49         V                 0.141052          0.957317
  50         V                 0.141087          0.958162
  51         V                 0.166291          1.672617
  52         V                 0.166711          1.664488
  53         V                 0.166774          1.661739
  54         V                 0.177777          1.573963
  55         V                 0.178054          1.548453
  56         V                 0.196837          1.408286
  57         V                 0.245112          1.589285
  58         V                 0.245527          1.588869
  59         V                 0.245998          1.590193
  60         V                 0.249497          1.862510
  61         V                 0.252611          1.860483
  62         V                 0.252661          1.860857
  63         V                 0.369517          1.405400
  64         V                 0.370948          1.412476
  65         V                 0.370972          1.412558
  66         V                 0.423131          1.501128
  67         V                 0.423873          1.636793
  68         V                 0.423896          1.628804
  69         V                 0.426999          2.054114
  70         V                 0.428449          1.920398
  71         V                 0.428501          1.929716
  72         V                 0.468614          1.336862
  73         V                 0.471541          1.344694
  74         V                 0.519957          2.177853
  75         V                 0.541162          2.144862
  76         V                 0.541644          2.151342
  77         V                 0.554220          2.302301
  78         V                 0.561529          2.415705
  79         V                 0.561679          2.415738
  80         V                 0.566653          2.424285
  81         V                 0.568876          2.014240
  82         V                 0.571321          2.009595
  83         V                 0.571352          2.009899
  84         V                 0.607878          1.898697
  85         V                 0.607927          1.898270
  86         V                 0.608410          2.318860
  87         V                 0.610048          1.915416
  88         V                 0.634000          2.028932
  89         V                 0.634107          2.029375
  90         V                 0.634932          2.021485
  91         V                 0.641815          2.038620
  92         V                 0.641824          2.038836
  93         V                 0.643452          2.009440
  94         V                 0.653921          2.018110
  95         V                 0.657737          2.032169
  96         V                 0.671744          2.288774
  97         V                 0.682133          1.791979
  98         V                 0.682339          1.794832
  99         V                 0.682917          1.860349
 100         V                 0.701877          1.787998
 101         V                 0.702022          1.785449
 102         V                 0.702844          1.717717
 103         V                 0.845039          1.741002
 104         V                 0.848409          1.739259
 105         V                 0.925010          1.985613
 106         V                 0.942193          1.908383
 107         V                 0.944193          1.907254
 108         V                 0.944655          1.907833
 109         V                 0.983388          1.799271
 110         V                 1.019171          2.115911
 111         V                 1.019483          2.115905
 112         V                 1.021272          2.122022
 113         V                 1.109963          1.972705
 114         V                 1.110359          1.973101
 115         V                 1.112769          1.971756
 116         V                 1.198952          2.263077
 117         V                 1.199320          2.264345
 118         V                 1.199481          2.262832
 119         V                 1.290974          2.208520
 120         V                 1.292576          2.212544
 121         V                 1.354630          2.245900
 122         V                 1.357069          2.248473
 123         V                 1.387480          2.497678
 124         V                 1.387781          2.497658
 125         V                 1.388944          2.491107
 126         V                 1.421645          2.259390
 127         V                 1.421695          2.258936
 128         V                 1.422744          2.255050
 129         V                 1.432338          2.358270
 130         V                 1.488065          2.671841
 131         V                 1.488266          2.670647
 132         V                 1.491959          2.723356
 133         V                 1.492014          2.718606
 134         V                 1.492272          2.671913
 135         V                 1.492401          2.728878
 136         V                 1.512664          2.873966
 137         V                 1.514024          2.863848
 138         V                 1.514111          2.863954
 139         V                 1.620088          2.638740
 140         V                 1.621543          2.639077
 141         V                 1.621608          2.639360
 142         V                 1.639405          2.661361
 143         V                 1.641675          2.663188
 144         V                 1.641704          2.663114
 145         V                 1.650238          3.069633
 146         V                 1.650391          3.071879
 147         V                 1.668309          2.934314
 148         V                 1.707133          2.830091
 149         V                 1.709304          2.829141
 150         V                 1.709835          2.828243
 151         V                 1.712175          3.153388
 152         V                 1.713638          3.155687
 153         V                 1.721300          2.574537
 154         V                 1.722074          2.573613
 155         V                 1.722284          2.573984
 156         V                 1.764472          2.768951
 157         V                 1.765235          2.770999
 158         V                 1.765317          2.770624
 159         V                 1.775736          2.862371
 160         V                 1.778881          2.860798
 161         V                 1.779202          2.861276
 162         V                 1.802645          2.714583
 163         V                 1.817225          2.666545
 164         V                 1.931845          3.246830
 165         V                 1.932350          3.247449
 166         V                 1.934137          3.246944
 167         V                 1.978323          2.959584
 168         V                 1.979927          2.959378
 169         V                 2.006761          2.951424
 170         V                 2.006888          2.951804
 171         V                 2.007243          2.957851
 172         V                 2.034529          3.304921
 173         V                 2.036966          3.300899
 174         V                 2.037709          3.302263
 175         V                 2.080139          3.447954
 176         V                 2.080170          3.447835
 177         V                 2.080280          3.447662
 178         V                 2.201999          3.190825
 179         V                 2.205086          3.185995
 180         V                 2.220874          3.396882
 181         V                 2.221203          3.397562
 182         V                 2.224014          3.394228
 183         V                 2.228345          3.429658
 184         V                 2.228517          3.429861
 185         V                 2.230190          3.429398
 186         V                 2.263965          3.920222
 187         V                 2.351391          3.968992
 188         V                 2.354220          3.960567
 189         V                 2.387128          4.153101
 190         V                 2.387413          4.153447
 191         V                 2.393326          4.155085
 192         V                 2.431597          3.590377
 193         V                 2.454784          4.256865
 194         V                 2.456943          4.256785
 195         V                 2.457405          4.257565
 196         V                 2.505597          3.824788
 197         V                 2.505930          3.834924
 198         V                 2.579693          4.214153
 199         V                 2.580069          4.219292
 200         V                 2.580716          4.219590
 Total kinetic energy from orbitals= 3.844058439138D+02
 No NMR shielding tensors so no spin-rotation constants.
 Leave Link  601 at Thu Jul  2 22:47:41 2020, MaxMem= 16642998272 cpu:         6.6
 (Enter /home/fuchs/agschreiner/public/bin/gaussian09-E.01/g09/l9999.exe)

 Test job not archived.
 1\1\GINC-NODE26-007\SP\RPBEPBE\CC-pVDZ\C10H12\SCHWAN\02-Jul-2020\0\\#p
  cc-pVDZ pbepbe empiricaldispersion=gd3bj scf=(xqc,maxcycle=250) int=(
 grid=ultrafine,acc2E=11) iop(6/7=3) gfinput nosymm\\opt\\0,1\C,0,4.150
 63847,-0.09531773,-1.43868423\C,0,4.68181213,0.00329229,0.00757365\C,0
 ,4.13427335,-1.19591798,0.81113107\C,0,2.59110983,-1.21807806,0.816452
 92\C,0,2.08875478,0.10493695,1.43211834\C,0,2.59529572,1.3297876,0.641
 8677\C,0,2.10538691,1.20516928,-0.81635017\C,0,2.60770849,-0.09555825,
 -1.47737812\C,0,2.10128048,-1.29242841,-0.64494942\C,0,4.13833745,1.30
 278968,0.63962103\H,0,4.53898092,0.75802057,-2.03795224\H,0,4.53643867
 ,-1.02368867,-1.9155753\H,0,4.51081624,-1.14757642,1.85707778\H,0,4.51
 965414,-2.14440316,0.37528529\H,0,2.42559052,0.17688103,2.49018971\H,0
 ,0.97657196,0.10868165,1.45048572\H,0,2.45467022,2.08275002,-1.40454\H
 ,0,0.99350968,1.22808723,-0.83895867\H,0,0.98925857,-1.31524886,-0.663
 38373\H,0,2.44762794,-2.24317635,-1.10781811\H,0,4.514945,1.39665936,1
 .68242139\H,0,4.52646183,2.18163039,0.07824687\\Version=ES64L-G09RevE.
 01\HF=-387.5577984\RMSD=8.668e-05\Dipole=0.0040062,0.0003052,0.0025831
 \Quadrupole=0.0286983,0.6698036,-0.6985019,0.07021,0.9797542,-0.094404
 5\PG=C01 [X(C10H12)]\\@


 WHEN ALL ELSE FAILS, TRY THE BOSS'S SUGGESTION.
 Job cpu time:       0 days  2 hours 45 minutes 35.8 seconds.
 File lengths (MBytes):  RWF=     67 Int=      0 D2E=      0 Chk=      3 Scr=      1
 Normal termination of Gaussian 09 at Thu Jul  2 22:47:42 2020.
