 Entering Gaussian System, Link 0=/home/fuchs/agschreiner/public/bin/gaussian16-C.01/g16/g16
 Input=cluster.com
 Output=cluster.log
 Initial command:
 /home/fuchs/agschreiner/public/bin/gaussian09-E.01/g09/l1.exe "/scratch/fuchs/giessen/schwan/promotion/dimer_paper/bondshare/AdMe/core1/Gau-1693.inp" -scrdir="/scratch/fuchs/giessen/schwan/promotion/dimer_paper/bondshare/AdMe/core1/"
 Entering Link 1 = /home/fuchs/agschreiner/public/bin/gaussian09-E.01/g09/l1.exe PID=      1697.
  
 Copyright (c) 1988,1990,1992,1993,1995,1998,2003,2009,2015,
            Gaussian, Inc.  All Rights Reserved.
  
 This is part of the Gaussian(R) 09 program.  It is based on
 the Gaussian(R) 03 system (copyright 2003, Gaussian, Inc.),
 the Gaussian(R) 98 system (copyright 1998, Gaussian, Inc.),
 the Gaussian(R) 94 system (copyright 1995, Gaussian, Inc.),
 the Gaussian 92(TM) system (copyright 1992, Gaussian, Inc.),
 the Gaussian 90(TM) system (copyright 1990, Gaussian, Inc.),
 the Gaussian 88(TM) system (copyright 1988, Gaussian, Inc.),
 the Gaussian 86(TM) system (copyright 1986, Carnegie Mellon
 University), and the Gaussian 82(TM) system (copyright 1983,
 Carnegie Mellon University). Gaussian is a federally registered
 trademark of Gaussian, Inc.
  
 This software contains proprietary and confidential information,
 including trade secrets, belonging to Gaussian, Inc.
  
 This software is provided under written license and may be
 used, copied, transmitted, or stored only in accord with that
 written license.
  
 The following legend is applicable only to US Government
 contracts under FAR:
  
                    RESTRICTED RIGHTS LEGEND
  
 Use, reproduction and disclosure by the US Government is
 subject to restrictions as set forth in subparagraphs (a)
 and (c) of the Commercial Computer Software - Restricted
 Rights clause in FAR 52.227-19.
  
 Gaussian, Inc.
 340 Quinnipiac St., Bldg. 40, Wallingford CT 06492
  
  
 ---------------------------------------------------------------
 Warning -- This program may not be used in any manner that
 competes with the business of Gaussian, Inc. or will provide
 assistance to any competitor of Gaussian, Inc.  The licensee
 of this program is prohibited from giving any competitor of
 Gaussian, Inc. access to this program.  By using this program,
 the user acknowledges that Gaussian, Inc. is engaged in the
 business of creating and licensing software in the field of
 computational chemistry and represents and warrants to the
 licensee that it is not a competitor of Gaussian, Inc. and that
 it will not use this program in any manner prohibited above.
 ---------------------------------------------------------------
  

 Cite this work as:
 Gaussian 09, Revision E.01,
 M. J. Frisch, G. W. Trucks, H. B. Schlegel, G. E. Scuseria, 
 M. A. Robb, J. R. Cheeseman, G. Scalmani, V. Barone, B. Mennucci, 
 G. A. Petersson, H. Nakatsuji, M. Caricato, X. Li, H. P. Hratchian, 
 A. F. Izmaylov, J. Bloino, G. Zheng, J. L. Sonnenberg, M. Hada, 
 M. Ehara, K. Toyota, R. Fukuda, J. Hasegawa, M. Ishida, T. Nakajima, 
 Y. Honda, O. Kitao, H. Nakai, T. Vreven, J. A. Montgomery, Jr., 
 J. E. Peralta, F. Ogliaro, M. Bearpark, J. J. Heyd, E. Brothers, 
 K. N. Kudin, V. N. Staroverov, T. Keith, R. Kobayashi, J. Normand, 
 K. Raghavachari, A. Rendell, J. C. Burant, S. S. Iyengar, J. Tomasi, 
 M. Cossi, N. Rega, J. M. Millam, M. Klene, J. E. Knox, J. B. Cross, 
 V. Bakken, C. Adamo, J. Jaramillo, R. Gomperts, R. E. Stratmann, 
 O. Yazyev, A. J. Austin, R. Cammi, C. Pomelli, J. W. Ochterski, 
 R. L. Martin, K. Morokuma, V. G. Zakrzewski, G. A. Voth, 
 P. Salvador, J. J. Dannenberg, S. Dapprich, A. D. Daniels, 
 O. Farkas, J. B. Foresman, J. V. Ortiz, J. Cioslowski, 
 and D. J. Fox, Gaussian, Inc., Wallingford CT, 2013.
 
 ******************************************
 Gaussian 09:  ES64L-G09RevE.01 30-Nov-2015
                 3-Jul-2020 
 ******************************************
 %NProcShared=20
 Will use up to   20 processors via shared memory.
 %Mem=124GB
 %Chk=ziel1
 ----------------------------------------------------------------------
 #p cc-pVDZ pbepbe empiricaldispersion=gd3bj scf=(xqc,maxcycle=250) int
 =(grid=ultrafine,acc2E=11) iop(6/7=3) gfinput nosymm
 ----------------------------------------------------------------------
 1/38=1/1;
 2/12=2,15=1,17=6,18=5,40=1/2;
 3/5=16,11=2,16=1,24=10,25=1,30=1,74=1009,75=-5,124=41/1,2,3;
 4//1;
 5/5=2,7=250,8=3,13=1,38=5,87=11/2,8;
 6/7=3,8=2,9=2,10=2,28=1/1;
 99/5=1,9=1/99;
 Leave Link    1 at Fri Jul  3 06:34:15 2020, MaxMem= 16642998272 cpu:         4.8
 (Enter /home/fuchs/agschreiner/public/bin/gaussian09-E.01/g09/l101.exe)
 ---
 opt
 ---
 Symbolic Z-matrix:
 Charge =  0 Multiplicity = 1
 C                    -4.13798   0.56216   1.33574 
 C                    -4.68191   0.00704   0.00174 
 C                    -4.13342   0.87812  -1.14895 
 C                    -2.59023   0.88343  -1.17053 
 C                    -2.10143  -0.57145  -1.3293 
 C                    -2.60891  -1.47153  -0.1828 
 C                    -2.10618  -0.8876    1.15422 
 C                    -2.59495   0.56121   1.363 
 C                    -2.0877    1.4209    0.18616 
 C                    -4.15185  -1.43145  -0.18046 
 H                    -4.52698  -0.04861   2.1806 
 H                    -4.51341   1.59822   1.48974 
 H                    -4.51903   0.49819  -2.12109 
 H                    -4.50904   1.91986  -1.04022 
 H                    -2.44777  -0.9781   -2.30543 
 H                    -0.98942  -0.58931  -1.35288 
 H                    -2.45602  -1.52548   1.99614 
 H                    -0.99431  -0.91249   1.17578 
 H                    -0.97552   1.43811   0.19106 
 H                    -2.42373   2.47324   0.31948 
 H                    -4.53786  -1.8533   -1.13502 
 H                    -4.5408   -2.07893   0.63661 
 
 NAtoms=     22 NQM=       22 NQMF=       0 NMMI=      0 NMMIF=      0
                NMic=       0 NMicF=      0.
                    Isotopes and Nuclear Properties:
 (Nuclear quadrupole moments (NQMom) in fm**2, nuclear magnetic moments (NMagM)
  in nuclear magnetons)

  Atom         1           2           3           4           5           6           7           8           9          10
 IAtWgt=          12          12          12          12          12          12          12          12          12          12
 AtmWgt=  12.0000000  12.0000000  12.0000000  12.0000000  12.0000000  12.0000000  12.0000000  12.0000000  12.0000000  12.0000000
 NucSpn=           0           0           0           0           0           0           0           0           0           0
 AtZEff=   0.0000000   0.0000000   0.0000000   0.0000000   0.0000000   0.0000000   0.0000000   0.0000000   0.0000000   0.0000000
 NQMom=    0.0000000   0.0000000   0.0000000   0.0000000   0.0000000   0.0000000   0.0000000   0.0000000   0.0000000   0.0000000
 NMagM=    0.0000000   0.0000000   0.0000000   0.0000000   0.0000000   0.0000000   0.0000000   0.0000000   0.0000000   0.0000000
 AtZNuc=   6.0000000   6.0000000   6.0000000   6.0000000   6.0000000   6.0000000   6.0000000   6.0000000   6.0000000   6.0000000

  Atom        11          12          13          14          15          16          17          18          19          20
 IAtWgt=           1           1           1           1           1           1           1           1           1           1
 AtmWgt=   1.0078250   1.0078250   1.0078250   1.0078250   1.0078250   1.0078250   1.0078250   1.0078250   1.0078250   1.0078250
 NucSpn=           1           1           1           1           1           1           1           1           1           1
 AtZEff=   0.0000000   0.0000000   0.0000000   0.0000000   0.0000000   0.0000000   0.0000000   0.0000000   0.0000000   0.0000000
 NQMom=    0.0000000   0.0000000   0.0000000   0.0000000   0.0000000   0.0000000   0.0000000   0.0000000   0.0000000   0.0000000
 NMagM=    2.7928460   2.7928460   2.7928460   2.7928460   2.7928460   2.7928460   2.7928460   2.7928460   2.7928460   2.7928460
 AtZNuc=   1.0000000   1.0000000   1.0000000   1.0000000   1.0000000   1.0000000   1.0000000   1.0000000   1.0000000   1.0000000

  Atom        21          22
 IAtWgt=           1           1
 AtmWgt=   1.0078250   1.0078250
 NucSpn=           1           1
 AtZEff=   0.0000000   0.0000000
 NQMom=    0.0000000   0.0000000
 NMagM=    2.7928460   2.7928460
 AtZNuc=   1.0000000   1.0000000
 Leave Link  101 at Fri Jul  3 06:34:15 2020, MaxMem= 16642998272 cpu:         1.6
 (Enter /home/fuchs/agschreiner/public/bin/gaussian09-E.01/g09/l202.exe)
                          Input orientation:                          
 ---------------------------------------------------------------------
 Center     Atomic      Atomic             Coordinates (Angstroms)
 Number     Number       Type             X           Y           Z
 ---------------------------------------------------------------------
      1          6           0       -4.137978    0.562156    1.335735
      2          6           0       -4.681913    0.007044    0.001737
      3          6           0       -4.133423    0.878120   -1.148948
      4          6           0       -2.590230    0.883430   -1.170525
      5          6           0       -2.101430   -0.571455   -1.329298
      6          6           0       -2.608912   -1.471534   -0.182800
      7          6           0       -2.106182   -0.887597    1.154218
      8          6           0       -2.594955    0.561207    1.362997
      9          6           0       -2.087697    1.420898    0.186158
     10          6           0       -4.151848   -1.431446   -0.180457
     11          1           0       -4.526977   -0.048615    2.180602
     12          1           0       -4.513411    1.598220    1.489744
     13          1           0       -4.519027    0.498190   -2.121092
     14          1           0       -4.509038    1.919865   -1.040224
     15          1           0       -2.447772   -0.978098   -2.305429
     16          1           0       -0.989415   -0.589312   -1.352879
     17          1           0       -2.456019   -1.525483    1.996139
     18          1           0       -0.994310   -0.912492    1.175778
     19          1           0       -0.975517    1.438110    0.191056
     20          1           0       -2.423727    2.473244    0.319484
     21          1           0       -4.537860   -1.853304   -1.135015
     22          1           0       -4.540798   -2.078930    0.636608
 ---------------------------------------------------------------------
                    Distance matrix (angstroms):
                    1          2          3          4          5
     1  C    0.000000
     2  C    1.543880   0.000000
     3  C    2.504696   1.543920   0.000000
     4  C    2.963120   2.552918   1.543353   0.000000
     5  C    3.540480   2.960608   2.502555   1.542992   0.000000
     6  C    2.963088   2.552955   2.962844   2.553783   1.543417
     7  C    2.502585   2.960234   3.540062   2.962309   2.503561
     8  C    1.543264   2.552551   2.962631   2.553935   2.962252
     9  C    2.502522   2.960228   2.502421   1.543373   2.503251
    10  C    2.504692   1.543832   2.504478   2.962691   2.502725
    11  H    1.112727   2.185075   3.478451   3.981174   4.298375
    12  H    1.112698   2.185041   2.761455   3.359552   4.297923
    13  H    3.478354   2.184985   1.112700   2.184548   2.759683
    14  H    2.761565   2.185052   1.112718   2.184720   3.476609
    15  H    4.299681   3.359301   2.761233   2.184854   1.112719
    16  H    4.297438   3.978085   3.475590   2.182849   1.112409
    17  H    2.761042   3.358702   4.299134   3.981034   3.477704
    18  H    3.476036   3.977730   4.297054   3.358189   2.759968
    19  H    3.475449   3.977582   3.475855   2.183774   2.759983
    20  H    2.761102   3.358945   2.761118   2.185259   3.477434
    21  H    3.478356   2.184914   2.761239   3.359202   2.759905
    22  H    2.761590   2.185009   3.478263   3.980707   3.476749
                    6          7          8          9         10
     6  C    0.000000
     7  C    1.543158   0.000000
     8  C    2.553766   1.543218   0.000000
     9  C    2.962087   2.503325   1.543156   0.000000
    10  C    1.543458   2.502374   2.962572   3.539914   0.000000
    11  H    3.359962   2.760001   2.184736   3.476688   2.761800
    12  H    3.980944   3.476582   2.184476   2.759505   3.478387
    13  H    3.359365   4.297661   3.980566   3.476516   2.761228
    14  H    3.980859   4.297806   3.359336   2.759687   3.478228
    15  H    2.185177   3.477648   3.981014   3.477476   2.761323
    16  H    2.184072   2.760739   3.358189   2.759675   3.476312
    17  H    2.184962   1.112706   2.185050   3.477477   2.760841
    18  H    2.182934   1.112360   2.183782   2.760354   3.475447
    19  H    3.357645   2.759529   2.182884   1.112324   4.296679
    20  H    3.980937   3.477481   2.184977   1.112710   4.299180
    21  H    2.184789   3.476527   3.980554   4.297581   1.112723
    22  H    2.184616   2.759448   3.359207   4.297605   1.112706
                   11         12         13         14         15
    11  H    0.000000
    12  H    1.785926   0.000000
    13  H    4.336315   3.774684   0.000000
    14  H    3.774778   2.550337   1.785927   0.000000
    15  H    5.031054   5.030668   2.550196   3.774618   0.000000
    16  H    5.029134   5.028355   3.772396   4.333759   1.784744
    17  H    2.550301   3.774496   5.030193   5.030388   4.336264
    18  H    3.773022   4.334320   5.028221   5.028541   3.773017
    19  H    4.333764   3.772124   4.334276   3.772785   3.773332
    20  H    3.774546   2.549894   3.774591   2.550207   4.336186
    21  H    3.774962   4.336241   2.549946   3.774470   2.550357
    22  H    2.550743   3.774921   3.774511   4.336259   3.774675
                   16         17         18         19         20
    16  H    0.000000
    17  H    3.774024   0.000000
    18  H    2.549230   1.784753   0.000000
    19  H    2.548405   3.772677   2.548600   0.000000
    20  H    3.772705   4.336131   3.773551   1.784743   0.000000
    21  H    3.773142   3.774341   4.333779   5.028137   5.030323
    22  H    4.334668   2.549692   3.772116   5.027855   5.030393
                   21         22
    21  H    0.000000
    22  H    1.785936   0.000000
 Symmetry turned off by external request.
 Stoichiometry    C10H12
 Framework group  C1[X(C10H12)]
 Deg. of freedom    60
 Full point group                 C1      NOp   1
 Rotational constants (GHZ):      1.7874304      1.7872568      1.7860206
 Leave Link  202 at Fri Jul  3 06:34:15 2020, MaxMem= 16642998272 cpu:         0.2
 (Enter /home/fuchs/agschreiner/public/bin/gaussian09-E.01/g09/l301.exe)
 Standard basis: CC-pVDZ (5D, 7F)
 Ernie: Thresh=  0.10000D-02 Tol=  0.10000D-05 Strict=F.
 Ernie:  20 primitive shells out of 280 were deleted.
 AO basis set in the form of general basis input (Overlap normalization):
      1 0
 S   7 1.00       0.000000000000
      0.6665000000D+04  0.6935163173D-03
      0.1000000000D+04  0.5341502433D-02
      0.2280000000D+03  0.2713667141D-01
      0.6471000000D+02  0.1019923853D+00
      0.2106000000D+02  0.2755086365D+00
      0.7495000000D+01  0.4510864331D+00
      0.2797000000D+01  0.2875657448D+00
 S   7 1.00       0.000000000000
      0.6665000000D+04  0.7733547404D-05
      0.2280000000D+03  0.2780721367D-03
      0.6471000000D+02 -0.2578756542D-02
      0.2106000000D+02 -0.8950876838D-02
      0.7495000000D+01 -0.1060588547D+00
      0.2797000000D+01 -0.1315176856D+00
      0.5215000000D+00  0.1099486598D+01
 S   1 1.00       0.000000000000
      0.1596000000D+00  0.1000000000D+01
 P   3 1.00       0.000000000000
      0.9439000000D+01  0.5697925159D-01
      0.2002000000D+01  0.3132072115D+00
      0.5456000000D+00  0.7603767417D+00
 P   1 1.00       0.000000000000
      0.1517000000D+00  0.1000000000D+01
 D   1 1.00       0.000000000000
      0.5500000000D+00  0.1000000000D+01
 ****
      2 0
 S   7 1.00       0.000000000000
      0.6665000000D+04  0.6935163173D-03
      0.1000000000D+04  0.5341502433D-02
      0.2280000000D+03  0.2713667141D-01
      0.6471000000D+02  0.1019923853D+00
      0.2106000000D+02  0.2755086365D+00
      0.7495000000D+01  0.4510864331D+00
      0.2797000000D+01  0.2875657448D+00
 S   7 1.00       0.000000000000
      0.6665000000D+04  0.7733547404D-05
      0.2280000000D+03  0.2780721367D-03
      0.6471000000D+02 -0.2578756542D-02
      0.2106000000D+02 -0.8950876838D-02
      0.7495000000D+01 -0.1060588547D+00
      0.2797000000D+01 -0.1315176856D+00
      0.5215000000D+00  0.1099486598D+01
 S   1 1.00       0.000000000000
      0.1596000000D+00  0.1000000000D+01
 P   3 1.00       0.000000000000
      0.9439000000D+01  0.5697925159D-01
      0.2002000000D+01  0.3132072115D+00
      0.5456000000D+00  0.7603767417D+00
 P   1 1.00       0.000000000000
      0.1517000000D+00  0.1000000000D+01
 D   1 1.00       0.000000000000
      0.5500000000D+00  0.1000000000D+01
 ****
      3 0
 S   7 1.00       0.000000000000
      0.6665000000D+04  0.6935163173D-03
      0.1000000000D+04  0.5341502433D-02
      0.2280000000D+03  0.2713667141D-01
      0.6471000000D+02  0.1019923853D+00
      0.2106000000D+02  0.2755086365D+00
      0.7495000000D+01  0.4510864331D+00
      0.2797000000D+01  0.2875657448D+00
 S   7 1.00       0.000000000000
      0.6665000000D+04  0.7733547404D-05
      0.2280000000D+03  0.2780721367D-03
      0.6471000000D+02 -0.2578756542D-02
      0.2106000000D+02 -0.8950876838D-02
      0.7495000000D+01 -0.1060588547D+00
      0.2797000000D+01 -0.1315176856D+00
      0.5215000000D+00  0.1099486598D+01
 S   1 1.00       0.000000000000
      0.1596000000D+00  0.1000000000D+01
 P   3 1.00       0.000000000000
      0.9439000000D+01  0.5697925159D-01
      0.2002000000D+01  0.3132072115D+00
      0.5456000000D+00  0.7603767417D+00
 P   1 1.00       0.000000000000
      0.1517000000D+00  0.1000000000D+01
 D   1 1.00       0.000000000000
      0.5500000000D+00  0.1000000000D+01
 ****
      4 0
 S   7 1.00       0.000000000000
      0.6665000000D+04  0.6935163173D-03
      0.1000000000D+04  0.5341502433D-02
      0.2280000000D+03  0.2713667141D-01
      0.6471000000D+02  0.1019923853D+00
      0.2106000000D+02  0.2755086365D+00
      0.7495000000D+01  0.4510864331D+00
      0.2797000000D+01  0.2875657448D+00
 S   7 1.00       0.000000000000
      0.6665000000D+04  0.7733547404D-05
      0.2280000000D+03  0.2780721367D-03
      0.6471000000D+02 -0.2578756542D-02
      0.2106000000D+02 -0.8950876838D-02
      0.7495000000D+01 -0.1060588547D+00
      0.2797000000D+01 -0.1315176856D+00
      0.5215000000D+00  0.1099486598D+01
 S   1 1.00       0.000000000000
      0.1596000000D+00  0.1000000000D+01
 P   3 1.00       0.000000000000
      0.9439000000D+01  0.5697925159D-01
      0.2002000000D+01  0.3132072115D+00
      0.5456000000D+00  0.7603767417D+00
 P   1 1.00       0.000000000000
      0.1517000000D+00  0.1000000000D+01
 D   1 1.00       0.000000000000
      0.5500000000D+00  0.1000000000D+01
 ****
      5 0
 S   7 1.00       0.000000000000
      0.6665000000D+04  0.6935163173D-03
      0.1000000000D+04  0.5341502433D-02
      0.2280000000D+03  0.2713667141D-01
      0.6471000000D+02  0.1019923853D+00
      0.2106000000D+02  0.2755086365D+00
      0.7495000000D+01  0.4510864331D+00
      0.2797000000D+01  0.2875657448D+00
 S   7 1.00       0.000000000000
      0.6665000000D+04  0.7733547404D-05
      0.2280000000D+03  0.2780721367D-03
      0.6471000000D+02 -0.2578756542D-02
      0.2106000000D+02 -0.8950876838D-02
      0.7495000000D+01 -0.1060588547D+00
      0.2797000000D+01 -0.1315176856D+00
      0.5215000000D+00  0.1099486598D+01
 S   1 1.00       0.000000000000
      0.1596000000D+00  0.1000000000D+01
 P   3 1.00       0.000000000000
      0.9439000000D+01  0.5697925159D-01
      0.2002000000D+01  0.3132072115D+00
      0.5456000000D+00  0.7603767417D+00
 P   1 1.00       0.000000000000
      0.1517000000D+00  0.1000000000D+01
 D   1 1.00       0.000000000000
      0.5500000000D+00  0.1000000000D+01
 ****
      6 0
 S   7 1.00       0.000000000000
      0.6665000000D+04  0.6935163173D-03
      0.1000000000D+04  0.5341502433D-02
      0.2280000000D+03  0.2713667141D-01
      0.6471000000D+02  0.1019923853D+00
      0.2106000000D+02  0.2755086365D+00
      0.7495000000D+01  0.4510864331D+00
      0.2797000000D+01  0.2875657448D+00
 S   7 1.00       0.000000000000
      0.6665000000D+04  0.7733547404D-05
      0.2280000000D+03  0.2780721367D-03
      0.6471000000D+02 -0.2578756542D-02
      0.2106000000D+02 -0.8950876838D-02
      0.7495000000D+01 -0.1060588547D+00
      0.2797000000D+01 -0.1315176856D+00
      0.5215000000D+00  0.1099486598D+01
 S   1 1.00       0.000000000000
      0.1596000000D+00  0.1000000000D+01
 P   3 1.00       0.000000000000
      0.9439000000D+01  0.5697925159D-01
      0.2002000000D+01  0.3132072115D+00
      0.5456000000D+00  0.7603767417D+00
 P   1 1.00       0.000000000000
      0.1517000000D+00  0.1000000000D+01
 D   1 1.00       0.000000000000
      0.5500000000D+00  0.1000000000D+01
 ****
      7 0
 S   7 1.00       0.000000000000
      0.6665000000D+04  0.6935163173D-03
      0.1000000000D+04  0.5341502433D-02
      0.2280000000D+03  0.2713667141D-01
      0.6471000000D+02  0.1019923853D+00
      0.2106000000D+02  0.2755086365D+00
      0.7495000000D+01  0.4510864331D+00
      0.2797000000D+01  0.2875657448D+00
 S   7 1.00       0.000000000000
      0.6665000000D+04  0.7733547404D-05
      0.2280000000D+03  0.2780721367D-03
      0.6471000000D+02 -0.2578756542D-02
      0.2106000000D+02 -0.8950876838D-02
      0.7495000000D+01 -0.1060588547D+00
      0.2797000000D+01 -0.1315176856D+00
      0.5215000000D+00  0.1099486598D+01
 S   1 1.00       0.000000000000
      0.1596000000D+00  0.1000000000D+01
 P   3 1.00       0.000000000000
      0.9439000000D+01  0.5697925159D-01
      0.2002000000D+01  0.3132072115D+00
      0.5456000000D+00  0.7603767417D+00
 P   1 1.00       0.000000000000
      0.1517000000D+00  0.1000000000D+01
 D   1 1.00       0.000000000000
      0.5500000000D+00  0.1000000000D+01
 ****
      8 0
 S   7 1.00       0.000000000000
      0.6665000000D+04  0.6935163173D-03
      0.1000000000D+04  0.5341502433D-02
      0.2280000000D+03  0.2713667141D-01
      0.6471000000D+02  0.1019923853D+00
      0.2106000000D+02  0.2755086365D+00
      0.7495000000D+01  0.4510864331D+00
      0.2797000000D+01  0.2875657448D+00
 S   7 1.00       0.000000000000
      0.6665000000D+04  0.7733547404D-05
      0.2280000000D+03  0.2780721367D-03
      0.6471000000D+02 -0.2578756542D-02
      0.2106000000D+02 -0.8950876838D-02
      0.7495000000D+01 -0.1060588547D+00
      0.2797000000D+01 -0.1315176856D+00
      0.5215000000D+00  0.1099486598D+01
 S   1 1.00       0.000000000000
      0.1596000000D+00  0.1000000000D+01
 P   3 1.00       0.000000000000
      0.9439000000D+01  0.5697925159D-01
      0.2002000000D+01  0.3132072115D+00
      0.5456000000D+00  0.7603767417D+00
 P   1 1.00       0.000000000000
      0.1517000000D+00  0.1000000000D+01
 D   1 1.00       0.000000000000
      0.5500000000D+00  0.1000000000D+01
 ****
      9 0
 S   7 1.00       0.000000000000
      0.6665000000D+04  0.6935163173D-03
      0.1000000000D+04  0.5341502433D-02
      0.2280000000D+03  0.2713667141D-01
      0.6471000000D+02  0.1019923853D+00
      0.2106000000D+02  0.2755086365D+00
      0.7495000000D+01  0.4510864331D+00
      0.2797000000D+01  0.2875657448D+00
 S   7 1.00       0.000000000000
      0.6665000000D+04  0.7733547404D-05
      0.2280000000D+03  0.2780721367D-03
      0.6471000000D+02 -0.2578756542D-02
      0.2106000000D+02 -0.8950876838D-02
      0.7495000000D+01 -0.1060588547D+00
      0.2797000000D+01 -0.1315176856D+00
      0.5215000000D+00  0.1099486598D+01
 S   1 1.00       0.000000000000
      0.1596000000D+00  0.1000000000D+01
 P   3 1.00       0.000000000000
      0.9439000000D+01  0.5697925159D-01
      0.2002000000D+01  0.3132072115D+00
      0.5456000000D+00  0.7603767417D+00
 P   1 1.00       0.000000000000
      0.1517000000D+00  0.1000000000D+01
 D   1 1.00       0.000000000000
      0.5500000000D+00  0.1000000000D+01
 ****
     10 0
 S   7 1.00       0.000000000000
      0.6665000000D+04  0.6935163173D-03
      0.1000000000D+04  0.5341502433D-02
      0.2280000000D+03  0.2713667141D-01
      0.6471000000D+02  0.1019923853D+00
      0.2106000000D+02  0.2755086365D+00
      0.7495000000D+01  0.4510864331D+00
      0.2797000000D+01  0.2875657448D+00
 S   7 1.00       0.000000000000
      0.6665000000D+04  0.7733547404D-05
      0.2280000000D+03  0.2780721367D-03
      0.6471000000D+02 -0.2578756542D-02
      0.2106000000D+02 -0.8950876838D-02
      0.7495000000D+01 -0.1060588547D+00
      0.2797000000D+01 -0.1315176856D+00
      0.5215000000D+00  0.1099486598D+01
 S   1 1.00       0.000000000000
      0.1596000000D+00  0.1000000000D+01
 P   3 1.00       0.000000000000
      0.9439000000D+01  0.5697925159D-01
      0.2002000000D+01  0.3132072115D+00
      0.5456000000D+00  0.7603767417D+00
 P   1 1.00       0.000000000000
      0.1517000000D+00  0.1000000000D+01
 D   1 1.00       0.000000000000
      0.5500000000D+00  0.1000000000D+01
 ****
     11 0
 S   3 1.00       0.000000000000
      0.1301000000D+02  0.3349872639D-01
      0.1962000000D+01  0.2348008012D+00
      0.4446000000D+00  0.8136829579D+00
 S   1 1.00       0.000000000000
      0.1220000000D+00  0.1000000000D+01
 P   1 1.00       0.000000000000
      0.7270000000D+00  0.1000000000D+01
 ****
     12 0
 S   3 1.00       0.000000000000
      0.1301000000D+02  0.3349872639D-01
      0.1962000000D+01  0.2348008012D+00
      0.4446000000D+00  0.8136829579D+00
 S   1 1.00       0.000000000000
      0.1220000000D+00  0.1000000000D+01
 P   1 1.00       0.000000000000
      0.7270000000D+00  0.1000000000D+01
 ****
     13 0
 S   3 1.00       0.000000000000
      0.1301000000D+02  0.3349872639D-01
      0.1962000000D+01  0.2348008012D+00
      0.4446000000D+00  0.8136829579D+00
 S   1 1.00       0.000000000000
      0.1220000000D+00  0.1000000000D+01
 P   1 1.00       0.000000000000
      0.7270000000D+00  0.1000000000D+01
 ****
     14 0
 S   3 1.00       0.000000000000
      0.1301000000D+02  0.3349872639D-01
      0.1962000000D+01  0.2348008012D+00
      0.4446000000D+00  0.8136829579D+00
 S   1 1.00       0.000000000000
      0.1220000000D+00  0.1000000000D+01
 P   1 1.00       0.000000000000
      0.7270000000D+00  0.1000000000D+01
 ****
     15 0
 S   3 1.00       0.000000000000
      0.1301000000D+02  0.3349872639D-01
      0.1962000000D+01  0.2348008012D+00
      0.4446000000D+00  0.8136829579D+00
 S   1 1.00       0.000000000000
      0.1220000000D+00  0.1000000000D+01
 P   1 1.00       0.000000000000
      0.7270000000D+00  0.1000000000D+01
 ****
     16 0
 S   3 1.00       0.000000000000
      0.1301000000D+02  0.3349872639D-01
      0.1962000000D+01  0.2348008012D+00
      0.4446000000D+00  0.8136829579D+00
 S   1 1.00       0.000000000000
      0.1220000000D+00  0.1000000000D+01
 P   1 1.00       0.000000000000
      0.7270000000D+00  0.1000000000D+01
 ****
     17 0
 S   3 1.00       0.000000000000
      0.1301000000D+02  0.3349872639D-01
      0.1962000000D+01  0.2348008012D+00
      0.4446000000D+00  0.8136829579D+00
 S   1 1.00       0.000000000000
      0.1220000000D+00  0.1000000000D+01
 P   1 1.00       0.000000000000
      0.7270000000D+00  0.1000000000D+01
 ****
     18 0
 S   3 1.00       0.000000000000
      0.1301000000D+02  0.3349872639D-01
      0.1962000000D+01  0.2348008012D+00
      0.4446000000D+00  0.8136829579D+00
 S   1 1.00       0.000000000000
      0.1220000000D+00  0.1000000000D+01
 P   1 1.00       0.000000000000
      0.7270000000D+00  0.1000000000D+01
 ****
     19 0
 S   3 1.00       0.000000000000
      0.1301000000D+02  0.3349872639D-01
      0.1962000000D+01  0.2348008012D+00
      0.4446000000D+00  0.8136829579D+00
 S   1 1.00       0.000000000000
      0.1220000000D+00  0.1000000000D+01
 P   1 1.00       0.000000000000
      0.7270000000D+00  0.1000000000D+01
 ****
     20 0
 S   3 1.00       0.000000000000
      0.1301000000D+02  0.3349872639D-01
      0.1962000000D+01  0.2348008012D+00
      0.4446000000D+00  0.8136829579D+00
 S   1 1.00       0.000000000000
      0.1220000000D+00  0.1000000000D+01
 P   1 1.00       0.000000000000
      0.7270000000D+00  0.1000000000D+01
 ****
     21 0
 S   3 1.00       0.000000000000
      0.1301000000D+02  0.3349872639D-01
      0.1962000000D+01  0.2348008012D+00
      0.4446000000D+00  0.8136829579D+00
 S   1 1.00       0.000000000000
      0.1220000000D+00  0.1000000000D+01
 P   1 1.00       0.000000000000
      0.7270000000D+00  0.1000000000D+01
 ****
     22 0
 S   3 1.00       0.000000000000
      0.1301000000D+02  0.3349872639D-01
      0.1962000000D+01  0.2348008012D+00
      0.4446000000D+00  0.8136829579D+00
 S   1 1.00       0.000000000000
      0.1220000000D+00  0.1000000000D+01
 P   1 1.00       0.000000000000
      0.7270000000D+00  0.1000000000D+01
 ****

   200 basis functions,   414 primitive gaussians,   210 cartesian basis functions
    36 alpha electrons       36 beta electrons
       nuclear repulsion energy       536.3133942779 Hartrees.
 IExCor= 1009 DFT=T Ex=PBE Corr=PBE ExCW=0 ScaHFX=  0.000000
 ScaDFX=  1.000000  1.000000  1.000000  1.000000 ScalE2=  1.000000  1.000000
 IRadAn=      5 IRanWt=     -1 IRanGd=            0 ICorTp=0 IEmpDi=141
 NAtoms=   22 NActive=   22 NUniq=   22 SFac= 1.00D+00 NAtFMM=   60 NAOKFM=F Big=F
 Integral buffers will be    131072 words long.
 Raffenetti 2 integral format.
 Two-electron integral symmetry is turned off.
 R6Disp:  Grimme-D3(BJ) Dispersion energy=       -0.0282175459 Hartrees.
 Nuclear repulsion after empirical dispersion term =      536.2851767320 Hartrees.
 Leave Link  301 at Fri Jul  3 06:34:16 2020, MaxMem= 16642998272 cpu:         1.4
 (Enter /home/fuchs/agschreiner/public/bin/gaussian09-E.01/g09/l302.exe)
 NPDir=0 NMtPBC=     1 NCelOv=     1 NCel=       1 NClECP=     1 NCelD=      1
         NCelK=      1 NCelE2=     1 NClLst=     1 CellRange=     0.0.
 One-electron integrals computed using PRISM.
 NBasis=   200 RedAO= T EigKep=  3.09D-03  NBF=   200
 NBsUse=   200 1.00D-06 EigRej= -1.00D+00 NBFU=   200
 Precomputing XC quadrature grid using
 IXCGrd= 4 IRadAn=           5 IRanWt=          -1 IRanGd=           0 AccXCQ= 0.00D+00.
 Generated NRdTot=       0 NPtTot=           0 NUsed=           0 NTot=          32
 NSgBfM=   210   210   210   210   210 MxSgAt=    22 MxSgA2=    22.
 Leave Link  302 at Fri Jul  3 06:34:16 2020, MaxMem= 16642998272 cpu:         7.5
 (Enter /home/fuchs/agschreiner/public/bin/gaussian09-E.01/g09/l303.exe)
 DipDrv:  MaxL=1.
 Leave Link  303 at Fri Jul  3 06:34:16 2020, MaxMem= 16642998272 cpu:         0.8
 (Enter /home/fuchs/agschreiner/public/bin/gaussian09-E.01/g09/l401.exe)
 ExpMin= 1.22D-01 ExpMax= 6.67D+03 ExpMxC= 2.28D+02 IAcc=3 IRadAn=         5 AccDes= 0.00D+00
 Harris functional with IExCor= 1009 and IRadAn=       5 diagonalized for initial guess.
 HarFok:  IExCor= 1009 AccDes= 0.00D+00 IRadAn=         5 IDoV= 1 UseB2=F ITyADJ=14
 ICtDFT=  3500011 ScaDFX=  1.000000  1.000000  1.000000  1.000000
 FoFCou: FMM=F IPFlag=           0 FMFlag=      100000 FMFlg1=           0
         NFxFlg=           0 DoJE=T BraDBF=F KetDBF=T FulRan=T
         wScrn=  0.000000 ICntrl=     500 IOpCl=  0 I1Cent=   200000004 NGrid=           0
         NMat0=    1 NMatS0=      1 NMatT0=    0 NMatD0=    1 NMtDS0=    0 NMtDT0=    0
 Symmetry not used in FoFCou.
 Harris En= -387.691140327339    
 JPrj=0 DoOrth=F DoCkMO=F.
 Leave Link  401 at Fri Jul  3 06:34:17 2020, MaxMem= 16642998272 cpu:        21.9
 (Enter /home/fuchs/agschreiner/public/bin/gaussian09-E.01/g09/l502.exe)
 Closed shell SCF:
 Using DIIS extrapolation, IDIIS=  1040.
 Two-electron integral symmetry not used.
 Keep J ints in memory in canonical form, NReq=206868264.
 IVT=      156354 IEndB=      156354 NGot= 16642998272 MDV= 16440826869
 LenX= 16440826869 LenY= 16440782328
 Requested convergence on RMS density matrix=1.00D-08 within 128 cycles.
 Requested convergence on MAX density matrix=1.00D-06.
 Requested convergence on             energy=1.00D-06.
 No special actions if energy rises.
 FoFCou: FMM=F IPFlag=           0 FMFlag=           0 FMFlg1=           0
         NFxFlg=           0 DoJE=F BraDBF=F KetDBF=F FulRan=T
         wScrn=  0.000000 ICntrl=     600 IOpCl=  0 I1Cent=           0 NGrid=           0
         NMat0=    1 NMatS0=  20100 NMatT0=    0 NMatD0=    1 NMtDS0=    0 NMtDT0=    0
 Symmetry not used in FoFCou.
 Integral accuracy reduced to 1.0D-05 until final iterations.

 Cycle   1  Pass 0  IDiag  1:
 E= -387.252193172593    
 DIIS: error= 3.14D-02 at cycle   1 NSaved=   1.
 NSaved= 1 IEnMin= 1 EnMin= -387.252193172593     IErMin= 1 ErrMin= 3.14D-02
 ErrMax= 3.14D-02  0.00D+00 EMaxC= 1.00D-01 BMatC= 2.35D-01 BMatP= 2.35D-01
 IDIUse=3 WtCom= 6.86D-01 WtEn= 3.14D-01
 Coeff-Com:  0.100D+01
 Coeff-En:   0.100D+01
 Coeff:      0.100D+01
 Gap=    -0.157 Goal=   None    Shift=    0.000
 GapD=   -0.157 DampG=0.250 DampE=0.500 DampFc=0.2500 IDamp=-1.
 Damping current iteration by 2.50D-01
 RMSDP=9.63D-03 MaxDP=3.00D-01              OVMax= 7.06D-01

 Cycle   2  Pass 0  IDiag  1:
 E= -387.333310203231     Delta-E=       -0.081117030638 Rises=F Damp=T
 DIIS: error= 1.20D-02 at cycle   2 NSaved=   2.
 NSaved= 2 IEnMin= 2 EnMin= -387.333310203231     IErMin= 2 ErrMin= 1.20D-02
 ErrMax= 1.20D-02  0.00D+00 EMaxC= 1.00D-01 BMatC= 3.75D-02 BMatP= 2.35D-01
 IDIUse=3 WtCom= 8.80D-01 WtEn= 1.20D-01
 Coeff-Com:  0.393D-01 0.961D+00
 Coeff-En:   0.323D+00 0.677D+00
 Coeff:      0.734D-01 0.927D+00
 Gap=     0.012 Goal=   None    Shift=    0.000
 RMSDP=4.15D-03 MaxDP=7.35D-02 DE=-8.11D-02 OVMax= 7.96D-01

 Cycle   3  Pass 0  IDiag  1:
 E= -387.259459689698     Delta-E=        0.073850513533 Rises=F Damp=F
 DIIS: error= 2.15D-02 at cycle   3 NSaved=   3.
 NSaved= 3 IEnMin= 2 EnMin= -387.333310203231     IErMin= 2 ErrMin= 1.20D-02
 ErrMax= 2.15D-02  0.00D+00 EMaxC= 1.00D-01 BMatC= 2.18D-01 BMatP= 3.75D-02
 IDIUse=2 WtCom= 0.00D+00 WtEn= 1.00D+00
 EnCoef did     1 forward-backward iterations
 Coeff-En:   0.482D-01 0.560D+00 0.391D+00
 Coeff:      0.482D-01 0.560D+00 0.391D+00
 Gap=    -0.060 Goal=   None    Shift=    0.000
 RMSDP=6.64D-03 MaxDP=1.93D-01 DE= 7.39D-02 OVMax= 9.59D-01

 Cycle   4  Pass 0  IDiag  1:
 E= -386.928552565169     Delta-E=        0.330907124529 Rises=F Damp=F
 DIIS: error= 3.88D-02 at cycle   4 NSaved=   4.
 NSaved= 4 IEnMin= 2 EnMin= -387.333310203231     IErMin= 2 ErrMin= 1.20D-02
 ErrMax= 3.88D-02  0.00D+00 EMaxC= 1.00D-01 BMatC= 4.45D-01 BMatP= 3.75D-02
 IDIUse=2 WtCom= 0.00D+00 WtEn= 1.00D+00
 EnCoef did     3 forward-backward iterations
 Coeff-En:   0.110D+00 0.000D+00 0.525D+00 0.365D+00
 Coeff:      0.110D+00 0.000D+00 0.525D+00 0.365D+00
 Gap=    -0.047 Goal=   None    Shift=    0.000
 RMSDP=6.37D-03 MaxDP=2.55D-01 DE= 3.31D-01 OVMax= 9.24D-01

 Problem detected with inexpensive integrals.
 Switching to full accuracy and repeating last cycle.
 Cycle   5  Pass 1  IDiag  1:
 E= -386.928595873551     Delta-E=       -0.000043308382 Rises=F Damp=F
 DIIS: error= 3.88D-02 at cycle   1 NSaved=   1.
 NSaved= 1 IEnMin= 1 EnMin= -386.928595873551     IErMin= 1 ErrMin= 3.88D-02
 ErrMax= 3.88D-02  0.00D+00 EMaxC= 1.00D-01 BMatC= 4.45D-01 BMatP= 4.45D-01
 IDIUse=3 WtCom= 6.12D-01 WtEn= 3.88D-01
 Coeff-Com:  0.100D+01
 Coeff-En:   0.100D+01
 Coeff:      0.100D+01
 Gap=    -0.146 Goal=   None    Shift=    0.000
 GapD=   -0.146 DampG=0.250 DampE=0.500 DampFc=0.2500 IDamp=-1.
 Damping current iteration by 2.50D-01
 RMSDP=1.98D-02 MaxDP=8.44D-01 DE=-4.33D-05 OVMax= 5.85D-01

 Cycle   6  Pass 1  IDiag  1:
 E= -387.102998826915     Delta-E=       -0.174402953364 Rises=F Damp=T
 DIIS: error= 7.50D-03 at cycle   2 NSaved=   2.
 NSaved= 2 IEnMin= 2 EnMin= -387.102998826915     IErMin= 2 ErrMin= 7.50D-03
 ErrMax= 7.50D-03  0.00D+00 EMaxC= 1.00D-01 BMatC= 2.54D-02 BMatP= 4.45D-01
 IDIUse=3 WtCom= 9.25D-01 WtEn= 7.50D-02
 Coeff-Com:  0.695D-01 0.930D+00
 Coeff-En:   0.343D+00 0.657D+00
 Coeff:      0.900D-01 0.910D+00
 Gap=     0.144 Goal=   None    Shift=    0.000
 RMSDP=6.62D-03 MaxDP=2.23D-01 DE=-1.74D-01 OVMax= 6.74D-01

 Cycle   7  Pass 1  IDiag  1:
 E= -387.286863955495     Delta-E=       -0.183865128580 Rises=F Damp=F
 DIIS: error= 1.89D-02 at cycle   3 NSaved=   3.
 NSaved= 3 IEnMin= 3 EnMin= -387.286863955495     IErMin= 2 ErrMin= 7.50D-03
 ErrMax= 1.89D-02  0.00D+00 EMaxC= 1.00D-01 BMatC= 1.92D-01 BMatP= 2.54D-02
 IDIUse=2 WtCom= 0.00D+00 WtEn= 1.00D+00
 EnCoef did   100 forward-backward iterations
 Coeff-En:   0.378D+00 0.466D-02 0.618D+00
 Coeff:      0.378D+00 0.466D-02 0.618D+00
 Gap=    -0.022 Goal=   None    Shift=    0.000
 RMSDP=6.18D-03 MaxDP=2.52D-01 DE=-1.84D-01 OVMax= 9.01D-01

 Cycle   8  Pass 1  IDiag  1:
 E= -387.181176061805     Delta-E=        0.105687893690 Rises=F Damp=F
 DIIS: error= 3.03D-02 at cycle   4 NSaved=   4.
 NSaved= 4 IEnMin= 3 EnMin= -387.286863955495     IErMin= 2 ErrMin= 7.50D-03
 ErrMax= 3.03D-02  0.00D+00 EMaxC= 1.00D-01 BMatC= 2.84D-01 BMatP= 2.54D-02
 IDIUse=2 WtCom= 0.00D+00 WtEn= 1.00D+00
 EnCoef did     6 forward-backward iterations
 Coeff-En:   0.279D+00 0.000D+00 0.523D+00 0.198D+00
 Coeff:      0.279D+00 0.000D+00 0.523D+00 0.198D+00
 Gap=     0.005 Goal=   None    Shift=    0.000
 RMSDP=6.11D-03 MaxDP=3.01D-01 DE= 1.06D-01 OVMax= 9.89D-01

 Cycle   9  Pass 1  IDiag  1:
 E= -387.361403398642     Delta-E=       -0.180227336838 Rises=F Damp=F
 DIIS: error= 2.35D-02 at cycle   5 NSaved=   5.
 NSaved= 5 IEnMin= 5 EnMin= -387.361403398642     IErMin= 2 ErrMin= 7.50D-03
 ErrMax= 2.35D-02  0.00D+00 EMaxC= 1.00D-01 BMatC= 1.37D-01 BMatP= 2.54D-02
 IDIUse=2 WtCom= 0.00D+00 WtEn= 1.00D+00
 EnCoef did     2 forward-backward iterations
 Coeff-En:   0.000D+00 0.000D+00 0.342D+00 0.247D+00 0.411D+00
 Coeff:      0.000D+00 0.000D+00 0.342D+00 0.247D+00 0.411D+00
 Gap=    -0.007 Goal=   None    Shift=    0.000
 RMSDP=5.48D-03 MaxDP=2.08D-01 DE=-1.80D-01 OVMax= 9.01D-01

 Cycle  10  Pass 1  IDiag  1:
 E= -387.371243633514     Delta-E=       -0.009840234872 Rises=F Damp=F
 DIIS: error= 2.80D-02 at cycle   6 NSaved=   6.
 NSaved= 6 IEnMin= 6 EnMin= -387.371243633514     IErMin= 2 ErrMin= 7.50D-03
 ErrMax= 2.80D-02  0.00D+00 EMaxC= 1.00D-01 BMatC= 1.28D-01 BMatP= 2.54D-02
 IDIUse=2 WtCom= 0.00D+00 WtEn= 1.00D+00
 EnCoef did     8 forward-backward iterations
 Coeff-En:   0.000D+00 0.000D+00 0.323D+00 0.158D+00 0.363D+00 0.156D+00
 Coeff:      0.000D+00 0.000D+00 0.323D+00 0.158D+00 0.363D+00 0.156D+00
 Gap=    -0.006 Goal=   None    Shift=    0.000
 RMSDP=5.22D-03 MaxDP=1.60D-01 DE=-9.84D-03 OVMax= 8.61D-01

 Cycle  11  Pass 1  IDiag  1:
 E= -387.371947151894     Delta-E=       -0.000703518380 Rises=F Damp=F
 DIIS: error= 2.37D-02 at cycle   7 NSaved=   7.
 NSaved= 7 IEnMin= 7 EnMin= -387.371947151894     IErMin= 2 ErrMin= 7.50D-03
 ErrMax= 2.37D-02  0.00D+00 EMaxC= 1.00D-01 BMatC= 1.26D-01 BMatP= 2.54D-02
 IDIUse=2 WtCom= 0.00D+00 WtEn= 1.00D+00
 EnCoef did     3 forward-backward iterations
 Coeff-En:   0.000D+00 0.000D+00 0.275D+00 0.000D+00 0.273D+00 0.240D+00
 Coeff-En:   0.211D+00
 Coeff:      0.000D+00 0.000D+00 0.275D+00 0.000D+00 0.273D+00 0.240D+00
 Coeff:      0.211D+00
 Gap=    -0.006 Goal=   None    Shift=    0.000
 RMSDP=5.96D-03 MaxDP=1.86D-01 DE=-7.04D-04 OVMax= 9.86D-01

 Cycle  12  Pass 1  IDiag  1:
 E= -387.412733540669     Delta-E=       -0.040786388775 Rises=F Damp=F
 DIIS: error= 1.33D-02 at cycle   8 NSaved=   8.
 NSaved= 8 IEnMin= 8 EnMin= -387.412733540669     IErMin= 2 ErrMin= 7.50D-03
 ErrMax= 1.33D-02  0.00D+00 EMaxC= 1.00D-01 BMatC= 8.49D-02 BMatP= 2.54D-02
 IDIUse=2 WtCom= 0.00D+00 WtEn= 1.00D+00
 EnCoef did     4 forward-backward iterations
 Coeff-En:   0.000D+00 0.000D+00 0.814D-03 0.000D+00 0.223D+00 0.206D+00
 Coeff-En:   0.218D+00 0.353D+00
 Coeff:      0.000D+00 0.000D+00 0.814D-03 0.000D+00 0.223D+00 0.206D+00
 Coeff:      0.218D+00 0.353D+00
 Gap=    -0.001 Goal=   None    Shift=    0.000
 RMSDP=5.95D-03 MaxDP=1.63D-01 DE=-4.08D-02 OVMax= 9.89D-01

 Cycle  13  Pass 1  IDiag  1:
 E= -387.436221380407     Delta-E=       -0.023487839738 Rises=F Damp=F
 DIIS: error= 1.41D-02 at cycle   9 NSaved=   9.
 NSaved= 9 IEnMin= 9 EnMin= -387.436221380407     IErMin= 2 ErrMin= 7.50D-03
 ErrMax= 1.41D-02  0.00D+00 EMaxC= 1.00D-01 BMatC= 7.25D-02 BMatP= 2.54D-02
 IDIUse=2 WtCom= 0.00D+00 WtEn= 1.00D+00
 EnCoef did   100 forward-backward iterations
 Coeff-En:   0.000D+00 0.000D+00 0.632D-02 0.000D+00 0.000D+00 0.226D+00
 Coeff-En:   0.153D+00 0.326D+00 0.289D+00
 Coeff:      0.000D+00 0.000D+00 0.632D-02 0.000D+00 0.000D+00 0.226D+00
 Coeff:      0.153D+00 0.326D+00 0.289D+00
 Gap=    -0.002 Goal=   None    Shift=    0.000
 RMSDP=6.02D-03 MaxDP=2.21D-01 DE=-2.35D-02 OVMax= 9.99D-01

 Cycle  14  Pass 1  IDiag  1:
 E= -387.438703028444     Delta-E=       -0.002481648037 Rises=F Damp=F
 DIIS: error= 1.58D-02 at cycle  10 NSaved=  10.
 NSaved=10 IEnMin=10 EnMin= -387.438703028444     IErMin= 2 ErrMin= 7.50D-03
 ErrMax= 1.58D-02  0.00D+00 EMaxC= 1.00D-01 BMatC= 6.85D-02 BMatP= 2.54D-02
 IDIUse=2 WtCom= 0.00D+00 WtEn= 1.00D+00
 EnCoef did   100 forward-backward iterations
 Coeff-En:   0.000D+00 0.000D+00 0.000D+00 0.000D+00 0.457D-02 0.469D-01
 Coeff-En:   0.000D+00 0.313D+00 0.341D+00 0.295D+00
 Coeff:      0.000D+00 0.000D+00 0.000D+00 0.000D+00 0.457D-02 0.469D-01
 Coeff:      0.000D+00 0.313D+00 0.341D+00 0.295D+00
 Gap=    -0.002 Goal=   None    Shift=    0.000
 RMSDP=5.24D-03 MaxDP=2.08D-01 DE=-2.48D-03 OVMax= 8.72D-01

 Cycle  15  Pass 1  IDiag  1:
 E= -387.429166430260     Delta-E=        0.009536598184 Rises=F Damp=F
 DIIS: error= 1.49D-02 at cycle  11 NSaved=  11.
 NSaved=11 IEnMin=10 EnMin= -387.438703028444     IErMin= 2 ErrMin= 7.50D-03
 ErrMax= 1.49D-02  0.00D+00 EMaxC= 1.00D-01 BMatC= 7.33D-02 BMatP= 2.54D-02
 IDIUse=2 WtCom= 0.00D+00 WtEn= 1.00D+00
 EnCoef did   100 forward-backward iterations
 Coeff-En:   0.000D+00 0.000D+00 0.000D+00 0.000D+00 0.397D-02 0.190D-02
 Coeff-En:   0.000D+00 0.294D+00 0.322D+00 0.317D+00 0.610D-01
 Coeff:      0.000D+00 0.000D+00 0.000D+00 0.000D+00 0.397D-02 0.190D-02
 Coeff:      0.000D+00 0.294D+00 0.322D+00 0.317D+00 0.610D-01
 Gap=     0.000 Goal=   None    Shift=    0.000
 RMSDP=5.73D-03 MaxDP=1.71D-01 DE= 9.54D-03 OVMax= 9.55D-01

 Cycle  16  Pass 1  IDiag  1:
 E= -387.501554885547     Delta-E=       -0.072388455287 Rises=F Damp=F
 DIIS: error= 1.67D-02 at cycle  12 NSaved=  12.
 NSaved=12 IEnMin=12 EnMin= -387.501554885547     IErMin= 2 ErrMin= 7.50D-03
 ErrMax= 1.67D-02  0.00D+00 EMaxC= 1.00D-01 BMatC= 3.68D-02 BMatP= 2.54D-02
 IDIUse=2 WtCom= 0.00D+00 WtEn= 1.00D+00
 EnCoef did   100 forward-backward iterations
 Coeff-En:   0.000D+00 0.000D+00 0.000D+00 0.000D+00 0.250D-02 0.120D-02
 Coeff-En:   0.000D+00 0.203D+00 0.187D+00 0.293D+00 0.128D+00 0.186D+00
 Coeff:      0.000D+00 0.000D+00 0.000D+00 0.000D+00 0.250D-02 0.120D-02
 Coeff:      0.000D+00 0.203D+00 0.187D+00 0.293D+00 0.128D+00 0.186D+00
 Gap=    -0.001 Goal=   None    Shift=    0.000
 RMSDP=5.96D-03 MaxDP=1.48D-01 DE=-7.24D-02 OVMax= 9.91D-01

 Cycle  17  Pass 1  IDiag  1:
 E= -387.501725251797     Delta-E=       -0.000170366251 Rises=F Damp=F
 DIIS: error= 1.44D-02 at cycle  13 NSaved=  13.
 NSaved=13 IEnMin=13 EnMin= -387.501725251797     IErMin= 2 ErrMin= 7.50D-03
 ErrMax= 1.44D-02  0.00D+00 EMaxC= 1.00D-01 BMatC= 3.65D-02 BMatP= 2.54D-02
 IDIUse=2 WtCom= 0.00D+00 WtEn= 1.00D+00
 EnCoef did   100 forward-backward iterations
 Coeff-En:   0.000D+00 0.000D+00 0.000D+00 0.000D+00 0.000D+00 0.000D+00
 Coeff-En:   0.453D-02 0.255D-04 0.107D+00 0.172D+00 0.200D+00 0.285D+00
 Coeff-En:   0.232D+00
 Coeff:      0.000D+00 0.000D+00 0.000D+00 0.000D+00 0.000D+00 0.000D+00
 Coeff:      0.453D-02 0.255D-04 0.107D+00 0.172D+00 0.200D+00 0.285D+00
 Coeff:      0.232D+00
 Gap=    -0.000 Goal=   None    Shift=    0.000
 RMSDP=5.52D-03 MaxDP=1.40D-01 DE=-1.70D-04 OVMax= 9.18D-01

 Cycle  18  Pass 1  IDiag  1:
 E= -387.525017727448     Delta-E=       -0.023292475651 Rises=F Damp=F
 DIIS: error= 1.17D-02 at cycle  14 NSaved=  14.
 NSaved=14 IEnMin=14 EnMin= -387.525017727448     IErMin= 2 ErrMin= 7.50D-03
 ErrMax= 1.17D-02  0.00D+00 EMaxC= 1.00D-01 BMatC= 2.23D-02 BMatP= 2.54D-02
 IDIUse=3 WtCom= 8.83D-01 WtEn= 1.17D-01
 EnCoef did   100 forward-backward iterations
 Coeff-Com:  0.558D-02 0.103D+00-0.137D+00-0.208D+00-0.276D-01-0.709D-02
 Coeff-Com:  0.508D-01 0.148D+00 0.543D-01 0.467D+00 0.101D+00 0.855D-01
 Coeff-Com:  0.138D+00 0.227D+00
 Coeff-En:   0.000D+00 0.000D+00 0.000D+00 0.000D+00 0.000D+00 0.000D+00
 Coeff-En:   0.414D-02 0.233D-04 0.770D-01 0.191D+00 0.194D+00 0.218D+00
 Coeff-En:   0.177D+00 0.140D+00
 Coeff:      0.493D-02 0.909D-01-0.121D+00-0.184D+00-0.244D-01-0.626D-02
 Coeff:      0.454D-01 0.131D+00 0.570D-01 0.434D+00 0.111D+00 0.101D+00
 Coeff:      0.143D+00 0.216D+00
 Gap=    -0.001 Goal=   None    Shift=    0.000
 RMSDP=5.96D-03 MaxDP=1.74D-01 DE=-2.33D-02 OVMax= 9.90D-01

 Cycle  19  Pass 1  IDiag  1:
 E= -387.437825775972     Delta-E=        0.087191951475 Rises=F Damp=F
 DIIS: error= 2.02D-02 at cycle  15 NSaved=  15.
 NSaved=15 IEnMin=14 EnMin= -387.525017727448     IErMin= 2 ErrMin= 7.50D-03
 ErrMax= 2.02D-02  0.00D+00 EMaxC= 1.00D-01 BMatC= 7.38D-02 BMatP= 2.23D-02
 IDIUse=2 WtCom= 0.00D+00 WtEn= 1.00D+00
 EnCoef did   100 forward-backward iterations
 Rare condition: small coef for last iteration: -0.122D-14
 Coeff-En:   0.000D+00 0.000D+00 0.000D+00 0.000D+00 0.000D+00 0.000D+00
 Coeff-En:   0.351D-01 0.000D+00 0.107D+00 0.181D+00 0.871D-01 0.296D-01
 Coeff-En:   0.170D+00 0.286D+00 0.104D+00
 Coeff:      0.000D+00 0.000D+00 0.000D+00 0.000D+00 0.000D+00 0.000D+00
 Coeff:      0.351D-01 0.000D+00 0.107D+00 0.181D+00 0.871D-01 0.296D-01
 Coeff:      0.170D+00 0.286D+00 0.104D+00
 Gap=    -0.000 Goal=   None    Shift=    0.000
 RMSDP=6.00D-03 MaxDP=2.14D-01 DE= 8.72D-02 OVMax= 9.98D-01

 Cycle  20  Pass 1  IDiag  1:
 E= -387.453688463303     Delta-E=       -0.015862687331 Rises=F Damp=F
 DIIS: error= 1.63D-02 at cycle  16 NSaved=  16.
 NSaved=16 IEnMin=14 EnMin= -387.525017727448     IErMin= 2 ErrMin= 7.50D-03
 ErrMax= 1.63D-02  0.00D+00 EMaxC= 1.00D-01 BMatC= 6.32D-02 BMatP= 2.23D-02
 IDIUse=2 WtCom= 0.00D+00 WtEn= 1.00D+00
 EnCoef did    69 forward-backward iterations
 Coeff-En:   0.000D+00 0.000D+00 0.000D+00 0.000D+00 0.000D+00 0.000D+00
 Coeff-En:   0.000D+00 0.000D+00 0.000D+00 0.137D-04 0.260D+00 0.949D-01
 Coeff-En:   0.150D+00 0.266D+00 0.155D-02 0.227D+00
 Coeff:      0.000D+00 0.000D+00 0.000D+00 0.000D+00 0.000D+00 0.000D+00
 Coeff:      0.000D+00 0.000D+00 0.000D+00 0.137D-04 0.260D+00 0.949D-01
 Coeff:      0.150D+00 0.266D+00 0.155D-02 0.227D+00
 Gap=    -0.000 Goal=   None    Shift=    0.000
 RMSDP=4.50D-03 MaxDP=1.76D-01 DE=-1.59D-02 OVMax= 7.48D-01

 Cycle  21  Pass 1  IDiag  1:
 E= -387.437126312103     Delta-E=        0.016562151200 Rises=F Damp=F
 DIIS: error= 1.33D-02 at cycle  17 NSaved=  17.
 NSaved=17 IEnMin=14 EnMin= -387.525017727448     IErMin= 2 ErrMin= 7.50D-03
 ErrMax= 1.33D-02  0.00D+00 EMaxC= 1.00D-01 BMatC= 6.53D-02 BMatP= 2.23D-02
 IDIUse=2 WtCom= 0.00D+00 WtEn= 1.00D+00
 EnCoef did   100 forward-backward iterations
 Coeff-En:   0.000D+00 0.000D+00 0.000D+00 0.000D+00 0.000D+00 0.000D+00
 Coeff-En:   0.000D+00 0.000D+00 0.000D+00 0.581D-01 0.245D+00 0.671D-01
 Coeff-En:   0.204D+00 0.188D+00 0.155D-02 0.137D+00 0.987D-01
 Coeff:      0.000D+00 0.000D+00 0.000D+00 0.000D+00 0.000D+00 0.000D+00
 Coeff:      0.000D+00 0.000D+00 0.000D+00 0.581D-01 0.245D+00 0.671D-01
 Coeff:      0.204D+00 0.188D+00 0.155D-02 0.137D+00 0.987D-01
 Gap=    -0.000 Goal=   None    Shift=    0.000
 RMSDP=5.17D-03 MaxDP=1.43D-01 DE= 1.66D-02 OVMax= 8.60D-01

 Cycle  22  Pass 1  IDiag  1:
 E= -387.440925133772     Delta-E=       -0.003798821668 Rises=F Damp=F
 DIIS: error= 1.38D-02 at cycle  18 NSaved=  18.
 NSaved=18 IEnMin=14 EnMin= -387.525017727448     IErMin= 2 ErrMin= 7.50D-03
 ErrMax= 1.38D-02  0.00D+00 EMaxC= 1.00D-01 BMatC= 6.41D-02 BMatP= 2.23D-02
 IDIUse=2 WtCom= 0.00D+00 WtEn= 1.00D+00
 EnCoef did   100 forward-backward iterations
 Coeff-En:   0.000D+00 0.000D+00 0.000D+00 0.000D+00 0.000D+00 0.000D+00
 Coeff-En:   0.000D+00 0.000D+00 0.000D+00 0.147D+00 0.243D+00 0.141D-02
 Coeff-En:   0.877D-01 0.147D-01 0.226D-02 0.102D+00 0.221D+00 0.181D+00
 Coeff:      0.000D+00 0.000D+00 0.000D+00 0.000D+00 0.000D+00 0.000D+00
 Coeff:      0.000D+00 0.000D+00 0.000D+00 0.147D+00 0.243D+00 0.141D-02
 Coeff:      0.877D-01 0.147D-01 0.226D-02 0.102D+00 0.221D+00 0.181D+00
 Gap=     0.000 Goal=   None    Shift=    0.000
 RMSDP=4.46D-03 MaxDP=1.09D-01 DE=-3.80D-03 OVMax= 7.42D-01

 Cycle  23  Pass 1  IDiag  1:
 E= -387.535961569178     Delta-E=       -0.095036435407 Rises=F Damp=F
 DIIS: error= 8.60D-03 at cycle  19 NSaved=  19.
 NSaved=19 IEnMin=19 EnMin= -387.535961569178     IErMin= 2 ErrMin= 7.50D-03
 ErrMax= 8.60D-03  0.00D+00 EMaxC= 1.00D-01 BMatC= 1.48D-02 BMatP= 2.23D-02
 IDIUse=3 WtCom= 9.14D-01 WtEn= 8.60D-02
 EnCoef did   100 forward-backward iterations
 Coeff-Com: -0.227D-01 0.329D-01-0.709D-01-0.191D-01-0.585D-02 0.124D+00
 Coeff-Com: -0.988D-01 0.196D+00 0.305D+00-0.239D+00-0.282D-01 0.245D+00
 Coeff-Com:  0.685D-01 0.276D+00 0.453D-02 0.327D+00-0.329D+00-0.208D+00
 Coeff-Com:  0.442D+00
 Coeff-En:   0.000D+00 0.000D+00 0.000D+00 0.000D+00 0.000D+00 0.000D+00
 Coeff-En:   0.000D+00 0.000D+00 0.000D+00 0.213D+00 0.220D+00 0.148D-02
 Coeff-En:   0.987D-01 0.132D-02 0.237D-02 0.125D-01 0.265D+00 0.171D+00
 Coeff-En:   0.151D-01
 Coeff:     -0.207D-01 0.301D-01-0.648D-01-0.175D-01-0.535D-02 0.113D+00
 Coeff:     -0.903D-01 0.179D+00 0.279D+00-0.200D+00-0.689D-02 0.224D+00
 Coeff:      0.711D-01 0.252D+00 0.435D-02 0.300D+00-0.278D+00-0.175D+00
 Coeff:      0.405D+00
 Gap=    -0.002 Goal=   None    Shift=    0.000
 RMSDP=6.00D-03 MaxDP=1.61D-01 DE=-9.50D-02 OVMax= 9.98D-01

 Cycle  24  Pass 1  IDiag  1:
 E= -387.456550331556     Delta-E=        0.079411237623 Rises=F Damp=F
 DIIS: error= 1.94D-02 at cycle  20 NSaved=  20.
 NSaved=20 IEnMin=19 EnMin= -387.535961569178     IErMin= 2 ErrMin= 7.50D-03
 ErrMax= 1.94D-02  0.00D+00 EMaxC= 1.00D-01 BMatC= 6.25D-02 BMatP= 1.48D-02
 IDIUse=2 WtCom= 0.00D+00 WtEn= 1.00D+00
 EnCoef did    35 forward-backward iterations
 Rare condition: small coef for last iteration: -0.367D-14
 Coeff-En:   0.000D+00 0.000D+00 0.000D+00 0.000D+00 0.000D+00 0.000D+00
 Coeff-En:   0.272D-02 0.000D+00 0.297D-01 0.333D-01 0.138D-01 0.000D+00
 Coeff-En:   0.000D+00 0.000D+00 0.562D-01 0.137D-01 0.219D+00 0.514D-01
 Coeff-En:   0.446D+00 0.135D+00
 Coeff:      0.000D+00 0.000D+00 0.000D+00 0.000D+00 0.000D+00 0.000D+00
 Coeff:      0.272D-02 0.000D+00 0.297D-01 0.333D-01 0.138D-01 0.000D+00
 Coeff:      0.000D+00 0.000D+00 0.562D-01 0.137D-01 0.219D+00 0.514D-01
 Coeff:      0.446D+00 0.135D+00
 Gap=    -0.002 Goal=   None    Shift=    0.000
 RMSDP=6.00D-03 MaxDP=1.95D-01 DE= 7.94D-02 OVMax= 9.98D-01

 Cycle  25  Pass 1  IDiag  1:
 E= -387.454261830424     Delta-E=        0.002288501131 Rises=F Damp=F
 DIIS: error= 1.81D-02 at cycle  21 NSaved=  20.
 NSaved=20 IEnMin=14 EnMin= -387.525017727448     IErMin= 2 ErrMin= 7.50D-03
 ErrMax= 1.81D-02  0.00D+00 EMaxC= 1.00D-01 BMatC= 6.36D-02 BMatP= 2.23D-02
 IDIUse=2 WtCom= 0.00D+00 WtEn= 1.00D+00
 EnCoef did   100 forward-backward iterations
 Coeff-En:   0.000D+00 0.000D+00 0.000D+00 0.000D+00 0.000D+00 0.000D+00
 Coeff-En:   0.000D+00 0.995D-03 0.137D-02 0.163D+00 0.239D+00 0.868D-03
 Coeff-En:   0.856D-01 0.146D-01 0.806D-03 0.108D-02 0.219D+00 0.184D+00
 Coeff-En:   0.131D-02 0.890D-01
 Coeff:      0.000D+00 0.000D+00 0.000D+00 0.000D+00 0.000D+00 0.000D+00
 Coeff:      0.000D+00 0.995D-03 0.137D-02 0.163D+00 0.239D+00 0.868D-03
 Coeff:      0.856D-01 0.146D-01 0.806D-03 0.108D-02 0.219D+00 0.184D+00
 Coeff:      0.131D-02 0.890D-01
 Gap=    -0.000 Goal=   None    Shift=    0.000
 RMSDP=5.43D-03 MaxDP=1.98D-01 DE= 2.29D-03 OVMax= 9.02D-01

 Cycle  26  Pass 1  IDiag  1:
 E= -387.529940175108     Delta-E=       -0.075678344684 Rises=F Damp=F
 DIIS: error= 9.50D-03 at cycle  22 NSaved=  20.
 NSaved=20 IEnMin=20 EnMin= -387.529940175108     IErMin= 2 ErrMin= 7.50D-03
 ErrMax= 9.50D-03  0.00D+00 EMaxC= 1.00D-01 BMatC= 1.87D-02 BMatP= 2.23D-02
 IDIUse=3 WtCom= 9.14D-01 WtEn= 8.60D-02
 EnCoef did   100 forward-backward iterations
 Coeff-Com: -0.177D-01 0.321D-01-0.355D-01-0.290D-01 0.144D-01 0.142D+00
 Coeff-Com: -0.104D+00 0.184D+00 0.254D+00-0.668D-01-0.153D+00 0.278D+00
 Coeff-Com:  0.824D-01 0.419D+00 0.102D+00-0.937D+00-0.423D+00-0.285D+00
 Coeff-Com:  0.119D+01 0.352D+00
 Coeff-En:   0.000D+00 0.000D+00 0.000D+00 0.000D+00 0.000D+00 0.000D+00
 Coeff-En:   0.000D+00 0.105D-02 0.144D-02 0.218D+00 0.219D+00 0.911D-03
 Coeff-En:   0.106D+00 0.210D-02 0.847D-03 0.957D-03 0.270D+00 0.163D+00
 Coeff-En:   0.104D-03 0.163D-01
 Coeff:     -0.162D-01 0.293D-01-0.324D-01-0.265D-01 0.132D-01 0.130D+00
 Coeff:     -0.954D-01 0.168D+00 0.232D+00-0.423D-01-0.121D+00 0.254D+00
 Coeff:      0.844D-01 0.383D+00 0.929D-01-0.856D+00-0.364D+00-0.247D+00
 Coeff:      0.109D+01 0.323D+00
 Gap=    -0.003 Goal=   None    Shift=    0.000
 RMSDP=5.94D-03 MaxDP=1.63D-01 DE=-7.57D-02 OVMax= 9.89D-01

 Cycle  27  Pass 1  IDiag  1:
 E= -387.445927501707     Delta-E=        0.084012673401 Rises=F Damp=F
 DIIS: error= 1.73D-02 at cycle  23 NSaved=  20.
 NSaved=20 IEnMin=19 EnMin= -387.529940175108     IErMin= 1 ErrMin= 7.50D-03
 ErrMax= 1.73D-02  0.00D+00 EMaxC= 1.00D-01 BMatC= 6.78D-02 BMatP= 1.87D-02
 IDIUse=2 WtCom= 0.00D+00 WtEn= 1.00D+00
 EnCoef did    36 forward-backward iterations
 Rare condition: small coef for last iteration:  0.136D-14
 Coeff-En:   0.000D+00 0.000D+00 0.000D+00 0.000D+00 0.000D+00 0.000D+00
 Coeff-En:   0.000D+00 0.266D-01 0.128D-01 0.125D-01 0.101D-01 0.000D+00
 Coeff-En:   0.000D+00 0.105D+00 0.000D+00 0.175D+00 0.932D-01 0.105D+00
 Coeff-En:   0.339D+00 0.121D+00
 Coeff:      0.000D+00 0.000D+00 0.000D+00 0.000D+00 0.000D+00 0.000D+00
 Coeff:      0.000D+00 0.266D-01 0.128D-01 0.125D-01 0.101D-01 0.000D+00
 Coeff:      0.000D+00 0.105D+00 0.000D+00 0.175D+00 0.932D-01 0.105D+00
 Coeff:      0.339D+00 0.121D+00
 Gap=    -0.001 Goal=   None    Shift=    0.000
 RMSDP=5.97D-03 MaxDP=2.03D-01 DE= 8.40D-02 OVMax= 9.94D-01

 Cycle  28  Pass 1  IDiag  1:
 E= -387.448369703571     Delta-E=       -0.002442201864 Rises=F Damp=F
 DIIS: error= 1.76D-02 at cycle  24 NSaved=  20.
 NSaved=20 IEnMin=13 EnMin= -387.525017727448     IErMin= 1 ErrMin= 7.50D-03
 ErrMax= 1.76D-02  0.00D+00 EMaxC= 1.00D-01 BMatC= 6.67D-02 BMatP= 2.23D-02
 IDIUse=2 WtCom= 0.00D+00 WtEn= 1.00D+00
 EnCoef did   100 forward-backward iterations
 Coeff-En:   0.000D+00 0.000D+00 0.000D+00 0.000D+00 0.000D+00 0.000D+00
 Coeff-En:   0.000D+00 0.480D-03 0.121D+00 0.250D+00 0.211D-03 0.713D-01
 Coeff-En:   0.400D-01 0.159D-02 0.129D-03 0.187D+00 0.187D+00 0.132D-03
 Coeff-En:   0.139D-02 0.140D+00
 Coeff:      0.000D+00 0.000D+00 0.000D+00 0.000D+00 0.000D+00 0.000D+00
 Coeff:      0.000D+00 0.480D-03 0.121D+00 0.250D+00 0.211D-03 0.713D-01
 Coeff:      0.400D-01 0.159D-02 0.129D-03 0.187D+00 0.187D+00 0.132D-03
 Coeff:      0.139D-02 0.140D+00
 Gap=    -0.000 Goal=   None    Shift=    0.000
 RMSDP=5.44D-03 MaxDP=1.97D-01 DE=-2.44D-03 OVMax= 9.05D-01

 Cycle  29  Pass 1  IDiag  1:
 E= -387.534893670546     Delta-E=       -0.086523966975 Rises=F Damp=F
 DIIS: error= 8.53D-03 at cycle  25 NSaved=  20.
 NSaved=20 IEnMin=20 EnMin= -387.534893670546     IErMin= 1 ErrMin= 7.50D-03
 ErrMax= 8.53D-03  0.00D+00 EMaxC= 1.00D-01 BMatC= 1.56D-02 BMatP= 2.23D-02
 IDIUse=3 WtCom= 9.15D-01 WtEn= 8.53D-02
 EnCoef did   100 forward-backward iterations
 Coeff-Com:  0.533D-02 0.691D-02-0.138D-01-0.999D-02 0.658D-01 0.175D-01
 Coeff-Com:  0.257D+00 0.304D+00 0.180D+00-0.138D-01 0.324D+00 0.620D-01
 Coeff-Com:  0.530D+00-0.155D-01-0.113D+01-0.553D+00-0.446D+00 0.273D+01
 Coeff-Com: -0.161D+01 0.306D+00
 Coeff-En:   0.000D+00 0.000D+00 0.000D+00 0.000D+00 0.000D+00 0.000D+00
 Coeff-En:   0.000D+00 0.488D-03 0.176D+00 0.231D+00 0.215D-03 0.803D-01
 Coeff-En:   0.459D-03 0.162D-02 0.284D-04 0.245D+00 0.179D+00 0.134D-03
 Coeff-En:   0.516D-01 0.347D-01
 Coeff:      0.487D-02 0.632D-02-0.127D-01-0.914D-02 0.602D-01 0.160D-01
 Coeff:      0.235D+00 0.278D+00 0.180D+00 0.710D-02 0.296D+00 0.636D-01
 Coeff:      0.485D+00-0.140D-01-0.103D+01-0.485D+00-0.393D+00 0.250D+01
 Coeff:     -0.147D+01 0.283D+00
 Gap=    -0.003 Goal=   None    Shift=    0.000
 RMSDP=5.99D-03 MaxDP=1.61D-01 DE=-8.65D-02 OVMax= 9.96D-01

 Cycle  30  Pass 1  IDiag  1:
 E= -387.460434357590     Delta-E=        0.074459312955 Rises=F Damp=F
 DIIS: error= 1.98D-02 at cycle  26 NSaved=  20.
 NSaved=20 IEnMin=19 EnMin= -387.534893670546     IErMin=19 ErrMin= 8.53D-03
 ErrMax= 1.98D-02  0.00D+00 EMaxC= 1.00D-01 BMatC= 6.09D-02 BMatP= 1.56D-02
 IDIUse=2 WtCom= 0.00D+00 WtEn= 1.00D+00
 EnCoef did    79 forward-backward iterations
 Rare condition: small coef for last iteration:  0.119D-14
 Coeff-En:   0.000D+00 0.000D+00 0.000D+00 0.000D+00 0.000D+00 0.000D+00
 Coeff-En:   0.302D-01 0.169D-01 0.142D-01 0.102D-01 0.000D+00 0.000D+00
 Coeff-En:   0.136D+00 0.000D+00 0.166D+00 0.410D-01 0.145D-01 0.100D+00
 Coeff-En:   0.357D+00 0.113D+00
 Coeff:      0.000D+00 0.000D+00 0.000D+00 0.000D+00 0.000D+00 0.000D+00
 Coeff:      0.302D-01 0.169D-01 0.142D-01 0.102D-01 0.000D+00 0.000D+00
 Coeff:      0.136D+00 0.000D+00 0.166D+00 0.410D-01 0.145D-01 0.100D+00
 Coeff:      0.357D+00 0.113D+00
 Gap=    -0.002 Goal=   None    Shift=    0.000
 RMSDP=5.99D-03 MaxDP=2.08D-01 DE= 7.45D-02 OVMax= 9.97D-01

 Cycle  31  Pass 1  IDiag  1:
 E= -387.449122275418     Delta-E=        0.011312082172 Rises=F Damp=F
 DIIS: error= 1.67D-02 at cycle  27 NSaved=  20.
 NSaved=20 IEnMin=12 EnMin= -387.525017727448     IErMin=12 ErrMin= 1.17D-02
 ErrMax= 1.67D-02  0.00D+00 EMaxC= 1.00D-01 BMatC= 6.63D-02 BMatP= 2.23D-02
 IDIUse=2 WtCom= 0.00D+00 WtEn= 1.00D+00
 EnCoef did   100 forward-backward iterations
 Coeff-En:   0.000D+00 0.000D+00 0.000D+00 0.000D+00 0.000D+00 0.000D+00
 Coeff-En:   0.131D-02 0.125D+00 0.247D+00 0.228D-03 0.793D-01 0.284D-01
 Coeff-En:   0.109D-02 0.188D-04 0.201D+00 0.186D+00 0.315D-03 0.849D-03
 Coeff-En:   0.128D-02 0.128D+00
 Coeff:      0.000D+00 0.000D+00 0.000D+00 0.000D+00 0.000D+00 0.000D+00
 Coeff:      0.131D-02 0.125D+00 0.247D+00 0.228D-03 0.793D-01 0.284D-01
 Coeff:      0.109D-02 0.188D-04 0.201D+00 0.186D+00 0.315D-03 0.849D-03
 Coeff:      0.128D-02 0.128D+00
 Gap=    -0.000 Goal=   None    Shift=    0.000
 RMSDP=5.46D-03 MaxDP=1.96D-01 DE= 1.13D-02 OVMax= 9.08D-01

 Cycle  32  Pass 1  IDiag  1:
 E= -387.542767905655     Delta-E=       -0.093645630237 Rises=F Damp=F
 DIIS: error= 7.26D-03 at cycle  28 NSaved=  20.
 NSaved=20 IEnMin=20 EnMin= -387.542767905655     IErMin=20 ErrMin= 7.26D-03
 ErrMax= 7.26D-03  0.00D+00 EMaxC= 1.00D-01 BMatC= 1.03D-02 BMatP= 2.23D-02
 IDIUse=3 WtCom= 9.27D-01 WtEn= 7.26D-02
 EnCoef did   100 forward-backward iterations
 Coeff-Com: -0.925D-02-0.111D-01 0.261D-02 0.594D-01-0.517D-01 0.170D+00
 Coeff-Com:  0.264D+00 0.178D+00-0.380D-01 0.251D+00 0.799D-01 0.464D+00
 Coeff-Com:  0.130D-01-0.232D+00-0.477D+00-0.303D+00 0.244D+01-0.911D+00
 Coeff-Com: -0.122D+01 0.331D+00
 Coeff-En:   0.000D+00 0.000D+00 0.000D+00 0.000D+00 0.000D+00 0.000D+00
 Coeff-En:   0.132D-02 0.187D+00 0.226D+00 0.230D-03 0.908D-01 0.182D-03
 Coeff-En:   0.110D-02 0.190D-04 0.251D+00 0.177D+00 0.318D-03 0.346D-03
 Coeff-En:   0.399D-01 0.247D-01
 Coeff:     -0.857D-02-0.103D-01 0.242D-02 0.551D-01-0.479D-01 0.157D+00
 Coeff:      0.245D+00 0.178D+00-0.188D-01 0.233D+00 0.807D-01 0.431D+00
 Coeff:      0.121D-01-0.215D+00-0.424D+00-0.268D+00 0.226D+01-0.844D+00
 Coeff:     -0.113D+01 0.309D+00
 Gap=    -0.003 Goal=   None    Shift=    0.000
 RMSDP=6.01D-03 MaxDP=1.62D-01 DE=-9.36D-02 OVMax= 1.00D+00

 Cycle  33  Pass 1  IDiag  1:
 E= -387.456653224469     Delta-E=        0.086114681186 Rises=F Damp=F
 DIIS: error= 2.00D-02 at cycle  29 NSaved=  20.
 NSaved=20 IEnMin=19 EnMin= -387.542767905655     IErMin=19 ErrMin= 7.26D-03
 ErrMax= 2.00D-02  0.00D+00 EMaxC= 1.00D-01 BMatC= 6.34D-02 BMatP= 1.03D-02
 IDIUse=2 WtCom= 0.00D+00 WtEn= 1.00D+00
 EnCoef did    63 forward-backward iterations
 Rare condition: small coef for last iteration:  0.272D-14
 Coeff-En:   0.000D+00 0.000D+00 0.000D+00 0.523D-04 0.000D+00 0.233D-01
 Coeff-En:   0.164D-01 0.139D-01 0.169D-01 0.000D+00 0.000D+00 0.109D+00
 Coeff-En:   0.000D+00 0.161D+00 0.625D-01 0.142D-01 0.734D-02 0.694D-01
 Coeff-En:   0.411D+00 0.951D-01
 Coeff:      0.000D+00 0.000D+00 0.000D+00 0.523D-04 0.000D+00 0.233D-01
 Coeff:      0.164D-01 0.139D-01 0.169D-01 0.000D+00 0.000D+00 0.109D+00
 Coeff:      0.000D+00 0.161D+00 0.625D-01 0.142D-01 0.734D-02 0.694D-01
 Coeff:      0.411D+00 0.951D-01
 Gap=    -0.001 Goal=   None    Shift=    0.000
 RMSDP=6.01D-03 MaxDP=1.90D-01 DE= 8.61D-02 OVMax= 1.00D+00

 Cycle  34  Pass 1  IDiag  1:
 E= -387.453122345280     Delta-E=        0.003530879189 Rises=F Damp=F
 DIIS: error= 1.97D-02 at cycle  30 NSaved=  20.
 NSaved=20 IEnMin=11 EnMin= -387.525017727448     IErMin=11 ErrMin= 1.17D-02
 ErrMax= 1.97D-02  0.00D+00 EMaxC= 1.00D-01 BMatC= 6.50D-02 BMatP= 2.23D-02
 IDIUse=2 WtCom= 0.00D+00 WtEn= 1.00D+00
 EnCoef did   100 forward-backward iterations
 Coeff-En:   0.000D+00 0.000D+00 0.000D+00 0.000D+00 0.368D-02 0.108D-02
 Coeff-En:   0.154D+00 0.246D+00 0.282D-03 0.640D-01 0.264D-01 0.985D-03
 Coeff-En:   0.150D-03 0.192D+00 0.193D+00 0.000D+00 0.790D-03 0.133D-02
 Coeff-En:   0.209D-02 0.115D+00
 Coeff:      0.000D+00 0.000D+00 0.000D+00 0.000D+00 0.368D-02 0.108D-02
 Coeff:      0.154D+00 0.246D+00 0.282D-03 0.640D-01 0.264D-01 0.985D-03
 Coeff:      0.150D-03 0.192D+00 0.193D+00 0.000D+00 0.790D-03 0.133D-02
 Coeff:      0.209D-02 0.115D+00
 Gap=    -0.000 Goal=   None    Shift=    0.000
 RMSDP=5.63D-03 MaxDP=2.06D-01 DE= 3.53D-03 OVMax= 9.36D-01

 Cycle  35  Pass 1  IDiag  1:
 E= -387.536075051858     Delta-E=       -0.082952706578 Rises=F Damp=F
 DIIS: error= 8.51D-03 at cycle  31 NSaved=  20.
 NSaved=20 IEnMin=20 EnMin= -387.536075051858     IErMin=20 ErrMin= 8.51D-03
 ErrMax= 8.51D-03  0.00D+00 EMaxC= 1.00D-01 BMatC= 1.47D-02 BMatP= 2.23D-02
 IDIUse=3 WtCom= 9.27D-01 WtEn= 7.26D-02
 EnCoef did   100 forward-backward iterations
 Coeff-Com: -0.116D-01-0.112D-01 0.520D-01-0.919D-01 0.158D+00 0.311D+00
 Coeff-Com:  0.232D+00-0.856D-01 0.326D+00 0.145D+00 0.497D+00 0.857D-01
 Coeff-Com: -0.500D-01-0.612D+00-0.330D+00 0.309D+00-0.275D+01 0.708D+00
 Coeff-Com:  0.192D+01 0.199D+00
 Coeff-En:   0.000D+00 0.000D+00 0.000D+00 0.000D+00 0.345D-02 0.101D-02
 Coeff-En:   0.193D+00 0.226D+00 0.264D-03 0.852D-01 0.238D-03 0.922D-03
 Coeff-En:   0.803D-05 0.250D+00 0.173D+00 0.000D+00 0.115D-03 0.199D-02
 Coeff-En:   0.323D-01 0.318D-01
 Coeff:     -0.107D-01-0.104D-01 0.482D-01-0.852D-01 0.147D+00 0.288D+00
 Coeff:      0.229D+00-0.630D-01 0.303D+00 0.141D+00 0.461D+00 0.795D-01
 Coeff:     -0.463D-01-0.549D+00-0.294D+00 0.287D+00-0.255D+01 0.657D+00
 Coeff:      0.178D+01 0.187D+00
 Gap=    -0.002 Goal=   None    Shift=    0.000
 RMSDP=6.01D-03 MaxDP=1.62D-01 DE=-8.30D-02 OVMax= 1.00D+00

 Cycle  36  Pass 1  IDiag  1:
 E= -387.461601543640     Delta-E=        0.074473508218 Rises=F Damp=F
 DIIS: error= 1.98D-02 at cycle  32 NSaved=  20.
 NSaved=20 IEnMin=19 EnMin= -387.536075051858     IErMin=19 ErrMin= 8.51D-03
 ErrMax= 1.98D-02  0.00D+00 EMaxC= 1.00D-01 BMatC= 5.96D-02 BMatP= 1.47D-02
 IDIUse=2 WtCom= 0.00D+00 WtEn= 1.00D+00
 EnCoef did   100 forward-backward iterations
 Rare condition: small coef for last iteration: -0.183D-14
 Coeff-En:   0.000D+00 0.000D+00 0.000D+00 0.000D+00 0.249D-01 0.125D-01
 Coeff-En:   0.134D-01 0.147D-01 0.000D+00 0.000D+00 0.126D+00 0.000D+00
 Coeff-En:   0.155D+00 0.558D-01 0.000D+00 0.000D+00 0.000D+00 0.116D+00
 Coeff-En:   0.367D+00 0.115D+00
 Coeff:      0.000D+00 0.000D+00 0.000D+00 0.000D+00 0.249D-01 0.125D-01
 Coeff:      0.134D-01 0.147D-01 0.000D+00 0.000D+00 0.126D+00 0.000D+00
 Coeff:      0.155D+00 0.558D-01 0.000D+00 0.000D+00 0.000D+00 0.116D+00
 Coeff:      0.367D+00 0.115D+00
 Gap=    -0.002 Goal=   None    Shift=    0.000
 RMSDP=5.96D-03 MaxDP=1.98D-01 DE= 7.45D-02 OVMax= 9.92D-01

 Cycle  37  Pass 1  IDiag  1:
 E= -387.451213188855     Delta-E=        0.010388354785 Rises=F Damp=F
 DIIS: error= 1.82D-02 at cycle  33 NSaved=  20.
 NSaved=20 IEnMin=10 EnMin= -387.525017727448     IErMin=10 ErrMin= 1.17D-02
 ErrMax= 1.82D-02  0.00D+00 EMaxC= 1.00D-01 BMatC= 6.54D-02 BMatP= 2.23D-02
 IDIUse=2 WtCom= 0.00D+00 WtEn= 1.00D+00
 EnCoef did   100 forward-backward iterations
 Coeff-En:   0.000D+00 0.000D+00 0.000D+00 0.000D+00 0.119D-02 0.135D+00
 Coeff-En:   0.247D+00 0.140D-04 0.761D-01 0.310D-01 0.275D-02 0.899D-05
 Coeff-En:   0.194D+00 0.187D+00 0.000D+00 0.000D+00 0.132D-02 0.328D-03
 Coeff-En:   0.204D-03 0.124D+00
 Coeff:      0.000D+00 0.000D+00 0.000D+00 0.000D+00 0.119D-02 0.135D+00
 Coeff:      0.247D+00 0.140D-04 0.761D-01 0.310D-01 0.275D-02 0.899D-05
 Coeff:      0.194D+00 0.187D+00 0.000D+00 0.000D+00 0.132D-02 0.328D-03
 Coeff:      0.204D-03 0.124D+00
 Gap=    -0.000 Goal=   None    Shift=    0.000
 RMSDP=5.47D-03 MaxDP=1.99D-01 DE= 1.04D-02 OVMax= 9.10D-01

 Cycle  38  Pass 1  IDiag  1:
 E= -387.532908184286     Delta-E=       -0.081694995431 Rises=F Damp=F
 DIIS: error= 8.93D-03 at cycle  34 NSaved=  20.
 NSaved=20 IEnMin=20 EnMin= -387.532908184286     IErMin=20 ErrMin= 8.93D-03
 ErrMax= 8.93D-03  0.00D+00 EMaxC= 1.00D-01 BMatC= 1.68D-02 BMatP= 2.23D-02
 IDIUse=3 WtCom= 9.27D-01 WtEn= 7.26D-02
 EnCoef did   100 forward-backward iterations
 Coeff-Com:  0.481D-02 0.292D-01-0.181D+00 0.134D+00 0.278D+00 0.218D+00
 Coeff-Com: -0.103D+00 0.361D+00 0.191D+00 0.488D+00 0.129D+00 0.513D+00
 Coeff-Com: -0.648D+00-0.348D+00-0.176D+01-0.315D+01 0.309D+01 0.441D+01
 Coeff-Com: -0.279D+01 0.139D+00
 Coeff-En:   0.000D+00 0.000D+00 0.000D+00 0.000D+00 0.118D-02 0.186D+00
 Coeff-En:   0.227D+00 0.139D-04 0.851D-01 0.159D-02 0.273D-02 0.893D-05
 Coeff-En:   0.249D+00 0.176D+00 0.000D+00 0.735D-03 0.369D-03 0.305D-04
 Coeff-En:   0.398D-01 0.318D-01
 Coeff:      0.446D-02 0.271D-01-0.168D+00 0.125D+00 0.258D+00 0.215D+00
 Coeff:     -0.793D-01 0.334D+00 0.183D+00 0.453D+00 0.120D+00 0.476D+00
 Coeff:     -0.583D+00-0.310D+00-0.163D+01-0.292D+01 0.286D+01 0.409D+01
 Coeff:     -0.259D+01 0.131D+00
 Gap=    -0.001 Goal=   None    Shift=    0.000
 RMSDP=5.99D-03 MaxDP=1.59D-01 DE=-8.17D-02 OVMax= 9.96D-01

 Cycle  39  Pass 1  IDiag  1:
 E= -387.464419910433     Delta-E=        0.068488273854 Rises=F Damp=F
 DIIS: error= 1.99D-02 at cycle  35 NSaved=  20.
 NSaved=20 IEnMin=19 EnMin= -387.532908184286     IErMin=19 ErrMin= 8.93D-03
 ErrMax= 1.99D-02  0.00D+00 EMaxC= 1.00D-01 BMatC= 5.85D-02 BMatP= 1.68D-02
 IDIUse=2 WtCom= 0.00D+00 WtEn= 1.00D+00
 EnCoef did    74 forward-backward iterations
 Rare condition: small coef for last iteration:  0.270D-14
 Coeff-En:   0.000D+00 0.000D+00 0.000D+00 0.320D-01 0.158D-01 0.129D-01
 Coeff-En:   0.628D-02 0.000D+00 0.000D+00 0.150D+00 0.000D+00 0.161D+00
 Coeff-En:   0.490D-01 0.000D+00 0.000D+00 0.000D+00 0.219D-01 0.106D+00
 Coeff-En:   0.334D+00 0.112D+00
 Coeff:      0.000D+00 0.000D+00 0.000D+00 0.320D-01 0.158D-01 0.129D-01
 Coeff:      0.628D-02 0.000D+00 0.000D+00 0.150D+00 0.000D+00 0.161D+00
 Coeff:      0.490D-01 0.000D+00 0.000D+00 0.000D+00 0.219D-01 0.106D+00
 Coeff:      0.334D+00 0.112D+00
 Gap=    -0.001 Goal=   None    Shift=    0.000
 RMSDP=5.89D-03 MaxDP=2.12D-01 DE= 6.85D-02 OVMax= 9.81D-01

 Cycle  40  Pass 1  IDiag  1:
 E= -387.444702195135     Delta-E=        0.019717715297 Rises=F Damp=F
 DIIS: error= 1.58D-02 at cycle  36 NSaved=  20.
 NSaved=20 IEnMin= 9 EnMin= -387.525017727448     IErMin= 9 ErrMin= 1.17D-02
 ErrMax= 1.58D-02  0.00D+00 EMaxC= 1.00D-01 BMatC= 6.80D-02 BMatP= 2.23D-02
 IDIUse=2 WtCom= 0.00D+00 WtEn= 1.00D+00
 EnCoef did   100 forward-backward iterations
 Coeff-En:   0.000D+00 0.000D+00 0.000D+00 0.956D-03 0.102D+00 0.251D+00
 Coeff-En:   0.132D-02 0.729D-01 0.371D-01 0.252D-02 0.137D-03 0.193D+00
 Coeff-En:   0.187D+00 0.000D+00 0.000D+00 0.284D-04 0.101D-02 0.252D-03
 Coeff-En:   0.759D-03 0.151D+00
 Coeff:      0.000D+00 0.000D+00 0.000D+00 0.956D-03 0.102D+00 0.251D+00
 Coeff:      0.132D-02 0.729D-01 0.371D-01 0.252D-02 0.137D-03 0.193D+00
 Coeff:      0.187D+00 0.000D+00 0.000D+00 0.284D-04 0.101D-02 0.252D-03
 Coeff:      0.759D-03 0.151D+00
 Gap=    -0.000 Goal=   None    Shift=    0.000
 RMSDP=5.39D-03 MaxDP=1.91D-01 DE= 1.97D-02 OVMax= 8.98D-01

 Cycle  41  Pass 1  IDiag  1:
 E= -387.543317863021     Delta-E=       -0.098615667885 Rises=F Damp=F
 DIIS: error= 6.96D-03 at cycle  37 NSaved=  20.
 NSaved=20 IEnMin=20 EnMin= -387.543317863021     IErMin=20 ErrMin= 6.96D-03
 ErrMax= 6.96D-03  0.00D+00 EMaxC= 1.00D-01 BMatC= 9.95D-03 BMatP= 2.23D-02
 IDIUse=3 WtCom= 9.30D-01 WtEn= 6.96D-02
 EnCoef did   100 forward-backward iterations
 Coeff-Com: -0.908D-02-0.165D+00 0.996D-01 0.285D+00 0.352D+00-0.772D-01
 Coeff-Com:  0.344D+00 0.212D+00 0.479D+00 0.125D+00 0.528D+00-0.655D+00
 Coeff-Com: -0.309D+00-0.189D+01-0.193D+01 0.414D+01 0.440D+01-0.368D+01
 Coeff-Com: -0.136D+01 0.108D+00
 Coeff-En:   0.000D+00 0.000D+00 0.000D+00 0.925D-03 0.150D+00 0.233D+00
 Coeff-En:   0.127D-02 0.780D-01 0.259D-02 0.244D-02 0.133D-03 0.234D+00
 Coeff-En:   0.181D+00 0.000D+00 0.144D-03 0.267D-03 0.431D-03 0.244D-03
 Coeff-En:   0.774D-01 0.380D-01
 Coeff:     -0.845D-02-0.153D+00 0.927D-01 0.265D+00 0.338D+00-0.556D-01
 Coeff:      0.320D+00 0.203D+00 0.446D+00 0.116D+00 0.491D+00-0.594D+00
 Coeff:     -0.275D+00-0.176D+01-0.179D+01 0.385D+01 0.409D+01-0.342D+01
 Coeff:     -0.126D+01 0.103D+00
 Gap=    -0.001 Goal=   None    Shift=    0.000
 RMSDP=5.87D-03 MaxDP=1.46D-01 DE=-9.86D-02 OVMax= 9.75D-01

 Cycle  42  Pass 1  IDiag  1:
 E= -387.469403425528     Delta-E=        0.073914437493 Rises=F Damp=F
 DIIS: error= 1.66D-02 at cycle  38 NSaved=  20.
 NSaved=20 IEnMin=19 EnMin= -387.543317863021     IErMin=19 ErrMin= 6.96D-03
 ErrMax= 1.66D-02  0.00D+00 EMaxC= 1.00D-01 BMatC= 5.44D-02 BMatP= 9.95D-03
 IDIUse=2 WtCom= 0.00D+00 WtEn= 1.00D+00
 EnCoef did   100 forward-backward iterations
 Rare condition: small coef for last iteration: -0.300D-14
 Coeff-En:   0.127D-02 0.000D+00 0.287D-01 0.194D-01 0.139D-01 0.115D-01
 Coeff-En:   0.000D+00 0.000D+00 0.154D+00 0.000D+00 0.146D+00 0.273D-01
 Coeff-En:   0.000D+00 0.000D+00 0.000D+00 0.192D-01 0.242D-01 0.607D-01
 Coeff-En:   0.408D+00 0.864D-01
 Coeff:      0.127D-02 0.000D+00 0.287D-01 0.194D-01 0.139D-01 0.115D-01
 Coeff:      0.000D+00 0.000D+00 0.154D+00 0.000D+00 0.146D+00 0.273D-01
 Coeff:      0.000D+00 0.000D+00 0.000D+00 0.192D-01 0.242D-01 0.607D-01
 Coeff:      0.408D+00 0.864D-01
 Gap=    -0.002 Goal=   None    Shift=    0.000
 RMSDP=5.88D-03 MaxDP=1.94D-01 DE= 7.39D-02 OVMax= 9.79D-01

 Cycle  43  Pass 1  IDiag  1:
 E= -387.451378711697     Delta-E=        0.018024713831 Rises=F Damp=F
 DIIS: error= 1.90D-02 at cycle  39 NSaved=  20.
 NSaved=20 IEnMin= 8 EnMin= -387.525017727448     IErMin= 8 ErrMin= 1.17D-02
 ErrMax= 1.90D-02  0.00D+00 EMaxC= 1.00D-01 BMatC= 6.57D-02 BMatP= 2.23D-02
 IDIUse=2 WtCom= 0.00D+00 WtEn= 1.00D+00
 EnCoef did   100 forward-backward iterations
 Coeff-En:   0.000D+00 0.565D-03 0.295D-02 0.162D+00 0.243D+00 0.543D-03
 Coeff-En:   0.703D-01 0.211D-02 0.568D-03 0.282D-04 0.218D+00 0.202D+00
 Coeff-En:   0.000D+00 0.209D-03 0.201D-03 0.592D-04 0.497D-04 0.226D-01
 Coeff-En:   0.488D-03 0.741D-01
 Coeff:      0.000D+00 0.565D-03 0.295D-02 0.162D+00 0.243D+00 0.543D-03
 Coeff:      0.703D-01 0.211D-02 0.568D-03 0.282D-04 0.218D+00 0.202D+00
 Coeff:      0.000D+00 0.209D-03 0.201D-03 0.592D-04 0.497D-04 0.226D-01
 Coeff:      0.488D-03 0.741D-01
 Gap=    -0.000 Goal=   None    Shift=    0.000
 RMSDP=5.48D-03 MaxDP=2.01D-01 DE= 1.80D-02 OVMax= 9.11D-01

 Cycle  44  Pass 1  IDiag  1:
 E= -387.531443752024     Delta-E=       -0.080065040327 Rises=F Damp=F
 DIIS: error= 9.29D-03 at cycle  40 NSaved=  20.
 NSaved=20 IEnMin=20 EnMin= -387.531443752024     IErMin=20 ErrMin= 9.29D-03
 ErrMax= 9.29D-03  0.00D+00 EMaxC= 1.00D-01 BMatC= 1.77D-02 BMatP= 2.23D-02
 IDIUse=3 WtCom= 9.30D-01 WtEn= 6.96D-02
 EnCoef did   100 forward-backward iterations
 Coeff-Com: -0.173D+00 0.118D+00 0.282D+00 0.294D+00-0.801D-01 0.359D+00
 Coeff-Com:  0.214D+00 0.501D+00 0.126D+00 0.446D+00-0.676D+00-0.334D+00
 Coeff-Com: -0.181D+01-0.207D+01 0.400D+01 0.562D+01-0.351D+01-0.738D+00
 Coeff-Com: -0.166D+01 0.947D-01
 Coeff-En:   0.000D+00 0.539D-03 0.281D-02 0.190D+00 0.226D+00 0.518D-03
 Coeff-En:   0.885D-01 0.611D-03 0.542D-03 0.269D-04 0.254D+00 0.177D+00
 Coeff-En:   0.000D+00 0.316D-04 0.192D-03 0.565D-04 0.474D-04 0.349D-01
 Coeff-En:   0.164D-04 0.243D-01
 Coeff:     -0.161D+00 0.109D+00 0.263D+00 0.286D+00-0.588D-01 0.334D+00
 Coeff:      0.206D+00 0.466D+00 0.117D+00 0.415D+00-0.611D+00-0.299D+00
 Coeff:     -0.168D+01-0.193D+01 0.372D+01 0.523D+01-0.327D+01-0.684D+00
 Coeff:     -0.155D+01 0.898D-01
 Gap=    -0.001 Goal=   None    Shift=    0.000
 RMSDP=5.90D-03 MaxDP=1.44D-01 DE=-8.01D-02 OVMax= 9.81D-01

 Cycle  45  Pass 1  IDiag  1:
 E= -387.470085194887     Delta-E=        0.061358557136 Rises=F Damp=F
 DIIS: error= 1.67D-02 at cycle  41 NSaved=  20.
 NSaved=20 IEnMin=19 EnMin= -387.531443752024     IErMin=19 ErrMin= 9.29D-03
 ErrMax= 1.67D-02  0.00D+00 EMaxC= 1.00D-01 BMatC= 5.40D-02 BMatP= 1.77D-02
 IDIUse=2 WtCom= 0.00D+00 WtEn= 1.00D+00
 EnCoef did    94 forward-backward iterations
 Rare condition: small coef for last iteration: -0.939D-15
 Coeff-En:   0.000D+00 0.330D-01 0.158D-01 0.122D-01 0.380D-02 0.000D+00
 Coeff-En:   0.000D+00 0.159D+00 0.000D+00 0.156D+00 0.335D-01 0.000D+00
 Coeff-En:   0.000D+00 0.000D+00 0.122D-01 0.000D+00 0.000D+00 0.111D+00
 Coeff-En:   0.336D+00 0.127D+00
 Coeff:      0.000D+00 0.330D-01 0.158D-01 0.122D-01 0.380D-02 0.000D+00
 Coeff:      0.000D+00 0.159D+00 0.000D+00 0.156D+00 0.335D-01 0.000D+00
 Coeff:      0.000D+00 0.000D+00 0.122D-01 0.000D+00 0.000D+00 0.111D+00
 Coeff:      0.336D+00 0.127D+00
 Gap=    -0.002 Goal=   None    Shift=    0.000
 RMSDP=5.84D-03 MaxDP=2.15D-01 DE= 6.14D-02 OVMax= 9.72D-01

 Cycle  46  Pass 1  IDiag  1:
 E= -387.442992192009     Delta-E=        0.027093002879 Rises=F Damp=F
 DIIS: error= 1.57D-02 at cycle  42 NSaved=  20.
 NSaved=20 IEnMin= 7 EnMin= -387.525017727448     IErMin= 7 ErrMin= 1.17D-02
 ErrMax= 1.57D-02  0.00D+00 EMaxC= 1.00D-01 BMatC= 6.88D-02 BMatP= 2.23D-02
 IDIUse=2 WtCom= 0.00D+00 WtEn= 1.00D+00
 EnCoef did   100 forward-backward iterations
 Coeff-En:   0.000D+00 0.230D-02 0.113D+00 0.251D+00 0.124D-02 0.664D-01
 Coeff-En:   0.199D-01 0.650D-03 0.382D-03 0.204D+00 0.199D+00 0.000D+00
 Coeff-En:   0.781D-04 0.925D-05 0.732D-03 0.123D-03 0.799D-04 0.273D-03
 Coeff-En:   0.731D-04 0.141D+00
 Coeff:      0.000D+00 0.230D-02 0.113D+00 0.251D+00 0.124D-02 0.664D-01
 Coeff:      0.199D-01 0.650D-03 0.382D-03 0.204D+00 0.199D+00 0.000D+00
 Coeff:      0.781D-04 0.925D-05 0.732D-03 0.123D-03 0.799D-04 0.273D-03
 Coeff:      0.731D-04 0.141D+00
 Gap=    -0.000 Goal=   None    Shift=    0.000
 RMSDP=5.33D-03 MaxDP=1.89D-01 DE= 2.71D-02 OVMax= 8.86D-01

 Cycle  47  Pass 1  IDiag  1:
 E= -387.543248119023     Delta-E=       -0.100255927015 Rises=F Damp=F
 DIIS: error= 7.13D-03 at cycle  43 NSaved=  20.
 NSaved=20 IEnMin=20 EnMin= -387.543248119023     IErMin=20 ErrMin= 7.13D-03
 ErrMax= 7.13D-03  0.00D+00 EMaxC= 1.00D-01 BMatC= 9.98D-03 BMatP= 2.23D-02
 IDIUse=3 WtCom= 9.30D-01 WtEn= 6.96D-02
 EnCoef did   100 forward-backward iterations
 Coeff-Com:  0.111D+00 0.309D+00 0.431D+00-0.613D-01 0.315D+00 0.186D+00
 Coeff-Com:  0.520D+00 0.942D-01-0.276D+00-0.655D+00-0.313D+00 0.193D+00
 Coeff-Com: -0.138D+01 0.265D+01 0.206D+01-0.190D+01-0.972D+00 0.260D+00
 Coeff-Com: -0.721D+00 0.148D+00
 Coeff-En:   0.000D+00 0.221D-02 0.155D+00 0.233D+00 0.119D-02 0.776D-01
 Coeff-En:   0.241D-02 0.625D-03 0.367D-03 0.236D+00 0.184D+00 0.000D+00
 Coeff-En:   0.280D-04 0.133D-03 0.198D-03 0.118D-03 0.767D-04 0.263D-03
 Coeff-En:   0.738D-01 0.331D-01
 Coeff:      0.104D+00 0.287D+00 0.412D+00-0.408D-01 0.293D+00 0.178D+00
 Coeff:      0.484D+00 0.877D-01-0.257D+00-0.593D+00-0.279D+00 0.179D+00
 Coeff:     -0.128D+01 0.247D+01 0.191D+01-0.177D+01-0.904D+00 0.242D+00
 Coeff:     -0.665D+00 0.140D+00
 Gap=    -0.002 Goal=   None    Shift=    0.000
 RMSDP=5.82D-03 MaxDP=1.31D-01 DE=-1.00D-01 OVMax= 9.68D-01

 Cycle  48  Pass 1  IDiag  1:
 E= -387.514499567621     Delta-E=        0.028748551402 Rises=F Damp=F
 DIIS: error= 1.32D-02 at cycle  44 NSaved=  20.
 NSaved=20 IEnMin=19 EnMin= -387.543248119023     IErMin=19 ErrMin= 7.13D-03
 ErrMax= 1.32D-02  0.00D+00 EMaxC= 1.00D-01 BMatC= 2.93D-02 BMatP= 9.98D-03
 IDIUse=2 WtCom= 0.00D+00 WtEn= 1.00D+00
 EnCoef did   100 forward-backward iterations
 Rare condition: small coef for last iteration: -0.139D-14
 Coeff-En:   0.520D-01 0.489D-01 0.190D-01 0.000D+00 0.000D+00 0.000D+00
 Coeff-En:   0.138D+00 0.000D+00 0.676D-01 0.000D+00 0.000D+00 0.000D+00
 Coeff-En:   0.000D+00 0.347D-02 0.000D+00 0.000D+00 0.107D-01 0.357D-01
 Coeff-En:   0.412D+00 0.212D+00
 Coeff:      0.520D-01 0.489D-01 0.190D-01 0.000D+00 0.000D+00 0.000D+00
 Coeff:      0.138D+00 0.000D+00 0.676D-01 0.000D+00 0.000D+00 0.000D+00
 Coeff:      0.000D+00 0.347D-02 0.000D+00 0.000D+00 0.107D-01 0.357D-01
 Coeff:      0.412D+00 0.212D+00
 Gap=    -0.002 Goal=   None    Shift=    0.000
 RMSDP=5.26D-03 MaxDP=1.93D-01 DE= 2.87D-02 OVMax= 8.75D-01

 Cycle  49  Pass 1  IDiag  1:
 E= -387.436851669592     Delta-E=        0.077647898029 Rises=F Damp=F
 DIIS: error= 1.64D-02 at cycle  45 NSaved=  20.
 NSaved=20 IEnMin= 6 EnMin= -387.525017727448     IErMin= 6 ErrMin= 1.17D-02
 ErrMax= 1.64D-02  0.00D+00 EMaxC= 1.00D-01 BMatC= 7.35D-02 BMatP= 2.23D-02
 IDIUse=2 WtCom= 0.00D+00 WtEn= 1.00D+00
 EnCoef did   100 forward-backward iterations
 Coeff-En:   0.277D-04 0.199D+00 0.232D+00 0.774D-03 0.724D-01 0.398D-03
 Coeff-En:   0.146D-02 0.281D-04 0.249D+00 0.195D+00 0.000D+00 0.000D+00
 Coeff-En:   0.000D+00 0.170D-03 0.000D+00 0.441D-05 0.000D+00 0.380D-02
 Coeff-En:   0.240D-02 0.432D-01
 Coeff:      0.277D-04 0.199D+00 0.232D+00 0.774D-03 0.724D-01 0.398D-03
 Coeff:      0.146D-02 0.281D-04 0.249D+00 0.195D+00 0.000D+00 0.000D+00
 Coeff:      0.000D+00 0.170D-03 0.000D+00 0.441D-05 0.000D+00 0.380D-02
 Coeff:      0.240D-02 0.432D-01
 Gap=     0.000 Goal=   None    Shift=    0.000
 RMSDP=3.65D-03 MaxDP=1.21D-01 DE= 7.76D-02 OVMax= 6.07D-01

 Cycle  50  Pass 1  IDiag  1:
 E= -387.458360743334     Delta-E=       -0.021509073742 Rises=F Damp=F
 DIIS: error= 1.45D-02 at cycle  46 NSaved=  20.
 NSaved=20 IEnMin= 6 EnMin= -387.525017727448     IErMin= 6 ErrMin= 1.17D-02
 ErrMax= 1.45D-02  0.00D+00 EMaxC= 1.00D-01 BMatC= 5.85D-02 BMatP= 2.23D-02
 IDIUse=2 WtCom= 0.00D+00 WtEn= 1.00D+00
 EnCoef did   100 forward-backward iterations
 Coeff-En:   0.273D-04 0.172D+00 0.240D+00 0.761D-03 0.490D-01 0.392D-03
 Coeff-En:   0.143D-02 0.277D-04 0.277D+00 0.165D+00 0.000D+00 0.000D+00
 Coeff-En:   0.000D+00 0.168D-03 0.000D+00 0.434D-05 0.000D+00 0.558D-04
 Coeff-En:   0.228D-03 0.936D-01
 Coeff:      0.273D-04 0.172D+00 0.240D+00 0.761D-03 0.490D-01 0.392D-03
 Coeff:      0.143D-02 0.277D-04 0.277D+00 0.165D+00 0.000D+00 0.000D+00
 Coeff:      0.000D+00 0.168D-03 0.000D+00 0.434D-05 0.000D+00 0.558D-04
 Coeff:      0.228D-03 0.936D-01
 Gap=     0.000 Goal=   None    Shift=    0.000
 RMSDP=2.26D-03 MaxDP=6.36D-02 DE=-2.15D-02 OVMax= 3.76D-01

 Cycle  51  Pass 1  IDiag  1:
 E= -387.485327352481     Delta-E=       -0.026966609146 Rises=F Damp=F
 DIIS: error= 1.37D-02 at cycle  47 NSaved=  20.
[...]
    11  H   -0.004175  -0.021294   0.006367  -0.004375   0.697200  -0.041150
    12  H    0.006336  -0.028028  -0.004360   0.006341  -0.041150   0.697064
    13  H   -0.000025   0.000307   0.006240  -0.003039  -0.000525   0.000578
    14  H   -0.000026  -0.007842  -0.003016   0.006217  -0.000044   0.004477
    15  H    0.006313   0.000901   0.006347  -0.004367  -0.000015   0.000030
    16  H   -0.004175  -0.000017  -0.004381   0.006363   0.000030  -0.000015
    17  H    0.359311  -0.032907   0.006220  -0.003017   0.004488  -0.000041
    18  H    0.359013  -0.032767  -0.003043   0.006247   0.000580  -0.000528
    19  H   -0.004173  -0.021219   0.353830  -0.000069  -0.000313  -0.000045
    20  H    0.006317  -0.028092   0.354154  -0.000073  -0.000047   0.004283
    21  H    0.006336   0.000898  -0.000071   0.354052  -0.000049  -0.000308
    22  H   -0.004168  -0.000010  -0.000071   0.354115   0.004307  -0.000049
              13         14         15         16         17         18
     1  C    0.006216  -0.003036  -0.000073  -0.000070  -0.003019   0.006240
     2  C   -0.032831  -0.032849  -0.000024   0.000927  -0.007849   0.000334
     3  C    0.359140   0.359160  -0.004187   0.006347  -0.000027  -0.000023
     4  C   -0.032756  -0.032777  -0.021217  -0.027979   0.000296  -0.007843
     5  C   -0.003023   0.006239   0.354125   0.353837   0.006221  -0.003035
     6  C   -0.007843   0.000304  -0.028065  -0.021165  -0.032905  -0.032798
     7  C   -0.000025  -0.000026   0.006313  -0.004175   0.359311   0.359013
     8  C    0.000307  -0.007842   0.000901  -0.000017  -0.032907  -0.032767
     9  C    0.006240  -0.003016   0.006347  -0.004381   0.006220  -0.003043
    10  C   -0.003039   0.006217  -0.004367   0.006363  -0.003017   0.006247
    11  H   -0.000525  -0.000044  -0.000015   0.000030   0.004488   0.000580
    12  H    0.000578   0.004477   0.000030  -0.000015  -0.000041  -0.000528
    13  H    0.706282  -0.027817   0.004464  -0.000040  -0.000018  -0.000018
    14  H   -0.027817   0.706303   0.000579  -0.000529  -0.000018  -0.000018
    15  H    0.004464   0.000579   0.697250  -0.041135  -0.000526  -0.000040
    16  H   -0.000040  -0.000529  -0.041135   0.697383   0.000578   0.004461
    17  H   -0.000018  -0.000018  -0.000526   0.000578   0.706452  -0.027844
    18  H   -0.000018  -0.000018  -0.000040   0.004461  -0.027844   0.706509
    19  H   -0.000529  -0.000039  -0.000045   0.004277   0.000579   0.004463
    20  H    0.000580   0.004461  -0.000311  -0.000045  -0.000527  -0.000040
    21  H    0.004472   0.000578   0.004275  -0.000045  -0.000041  -0.000529
    22  H   -0.000044  -0.000525  -0.000047  -0.000312   0.004487   0.000582
              19         20         21         22
     1  C    0.006372  -0.004364   0.006341  -0.004369
     2  C    0.000929  -0.000028  -0.021202  -0.028098
     3  C    0.006340  -0.004174  -0.004179   0.006315
     4  C   -0.027966  -0.021231   0.000011   0.000879
     5  C   -0.004363   0.006341  -0.004349   0.006362
     6  C   -0.000019   0.000900  -0.028034  -0.021299
     7  C   -0.004173   0.006317   0.006336  -0.004168
     8  C   -0.021219  -0.028092   0.000898  -0.000010
     9  C    0.353830   0.354154  -0.000071  -0.000071
    10  C   -0.000069  -0.000073   0.354052   0.354115
    11  H   -0.000313  -0.000047  -0.000049   0.004307
    12  H   -0.000045   0.004283  -0.000308  -0.000049
    13  H   -0.000529   0.000580   0.004472  -0.000044
    14  H   -0.000039   0.004461   0.000578  -0.000525
    15  H   -0.000045  -0.000311   0.004275  -0.000047
    16  H    0.004277  -0.000045  -0.000045  -0.000312
    17  H    0.000579  -0.000527  -0.000041   0.004487
    18  H    0.004463  -0.000040  -0.000529   0.000582
    19  H    0.697419  -0.041126  -0.000015   0.000030
    20  H   -0.041126   0.697268   0.000030  -0.000015
    21  H   -0.000015   0.000030   0.697076  -0.041138
    22  H    0.000030  -0.000015  -0.041138   0.697238
 Mulliken charges:
               1
     1  C    0.073859
     2  C   -0.191573
     3  C    0.092325
     4  C   -0.192196
     5  C    0.073779
     6  C   -0.191725
     7  C    0.092491
     8  C   -0.191592
     9  C    0.073767
    10  C    0.073842
    11  H    0.025856
    12  H    0.025898
    13  H    0.020228
    14  H    0.020218
    15  H    0.025767
    16  H    0.025705
    17  H    0.020108
    18  H    0.020098
    19  H    0.025681
    20  H    0.025740
    21  H    0.025891
    22  H    0.025830
 Sum of Mulliken charges =   0.00000
 Mulliken charges with hydrogens summed into heavy atoms:
               1
     1  C    0.125614
     2  C   -0.191573
     3  C    0.132771
     4  C   -0.192196
     5  C    0.125252
     6  C   -0.191725
     7  C    0.132697
     8  C   -0.191592
     9  C    0.125189
    10  C    0.125563
 Electronic spatial extent (au):  <R**2>=           3541.5173
 Charge=              0.0000 electrons
 Dipole moment (field-independent basis, Debye):
    X=             -0.0091    Y=             -0.0025    Z=              0.0061  Tot=              0.0112
 Quadrupole moment (field-independent basis, Debye-Ang):
   XX=            -62.3033   YY=            -62.1556   ZZ=            -62.6378
   XY=              0.7937   XZ=             -1.0434   YZ=              0.9120
 Traceless Quadrupole moment (field-independent basis, Debye-Ang):
   XX=              0.0623   YY=              0.2100   ZZ=             -0.2723
   XY=              0.7937   XZ=             -1.0434   YZ=              0.9120
 Octapole moment (field-independent basis, Debye-Ang**2):
  XXX=            594.4122  YYY=              8.3722  ZZZ=             -3.4567  XYY=            188.3576
  XXY=             -4.7923  XXZ=              6.2932  XZZ=            189.7556  YZZ=             -6.9881
  YYZ=              2.7504  XYZ=             -2.8031
 Hexadecapole moment (field-independent basis, Debye-Ang**3):
 XXXX=          -4279.5177 YYYY=           -498.2947 ZZZZ=           -501.2951 XXXY=             24.3471
 XXXZ=            -31.9107 YYYX=            -20.2566 YYYZ=              3.0107 ZZZX=              6.2877
 ZZZY=              2.8300 XXYY=           -733.8339 XXZZ=           -738.3448 YYZZ=           -166.1904
 XXYZ=              9.3696 YYXZ=             -8.2267 ZZXY=             19.1527
 N-N= 5.362851767320D+02 E-N=-1.969917712597D+03  KE= 3.844058173250D+02
 Orbital energies and kinetic energies (alpha):
                                 1                 2
   1         O                -9.929858         15.958338
   2         O                -9.929497         15.958303
   3         O                -9.929427         15.958302
   4         O                -9.929123         15.958289
   5         O                -9.909971         15.951111
   6         O                -9.909929         15.950873
   7         O                -9.909693         15.951565
   8         O                -9.909687         15.951135
   9         O                -9.909647         15.950827
  10         O                -9.909576         15.951281
  11         O                -0.802024          1.225751
  12         O                -0.698677          1.401465
  13         O                -0.698550          1.401304
  14         O                -0.694272          1.406887
  15         O                -0.610289          1.411012
  16         O                -0.605430          1.414820
  17         O                -0.504575          1.369111
  18         O                -0.503309          1.383944
  19         O                -0.503215          1.384030
  20         O                -0.471121          0.995209
  21         O                -0.408252          0.972601
  22         O                -0.408219          0.972632
  23         O                -0.407123          0.983624
  24         O                -0.370849          1.151845
  25         O                -0.368176          1.151065
  26         O                -0.368011          1.150974
  27         O                -0.309647          1.177456
  28         O                -0.307569          1.182757
  29         O                -0.307356          1.183106
  30         O                -0.296886          1.337166
  31         O                -0.294388          1.268650
  32         O                -0.294255          1.334634
  33         O                -0.290193          1.271460
  34         O                -0.290065          1.271785
  35         O                -0.237290          1.432716
  36         O                -0.123957          1.426880
  37         V                -0.128447          1.428642
  38         V                -0.128265          1.428910
  39         V                 0.028116          0.784010
  40         V                 0.065140          0.823639
  41         V                 0.065512          0.811770
  42         V                 0.065553          0.812113
  43         V                 0.089260          0.886379
  44         V                 0.089329          0.886336
  45         V                 0.092035          0.881074
  46         V                 0.100644          1.013128
  47         V                 0.101996          1.029841
  48         V                 0.139099          0.954449
  49         V                 0.141046          0.957788
  50         V                 0.141089          0.957776
  51         V                 0.166296          1.672586
  52         V                 0.166721          1.664228
  53         V                 0.166759          1.661936
  54         V                 0.177773          1.573912
  55         V                 0.178055          1.548493
  56         V                 0.196834          1.408286
  57         V                 0.245113          1.589182
  58         V                 0.245533          1.589148
  59         V                 0.245986          1.590258
  60         V                 0.249485          1.862430
  61         V                 0.252611          1.860954
  62         V                 0.252672          1.860242
  63         V                 0.369512          1.405410
  64         V                 0.370948          1.412498
  65         V                 0.370976          1.412536
  66         V                 0.423124          1.501136
  67         V                 0.423874          1.632583
  68         V                 0.423893          1.633777
  69         V                 0.427008          2.054393
  70         V                 0.428460          1.920310
  71         V                 0.428489          1.928754
  72         V                 0.468629          1.336892
  73         V                 0.471529          1.344672
  74         V                 0.519950          2.177744
  75         V                 0.541170          2.144852
  76         V                 0.541634          2.151355
  77         V                 0.554218          2.302373
  78         V                 0.561511          2.415444
  79         V                 0.561684          2.415831
  80         V                 0.566662          2.424371
  81         V                 0.568870          2.014241
  82         V                 0.571319          2.009482
  83         V                 0.571358          2.010067
  84         V                 0.607883          1.898673
  85         V                 0.607922          1.897994
  86         V                 0.608404          2.319255
  87         V                 0.610042          1.915390
  88         V                 0.633998          2.028940
  89         V                 0.634111          2.029415
  90         V                 0.634930          2.021424
  91         V                 0.641806          2.038685
  92         V                 0.641829          2.038816
  93         V                 0.643450          2.009403
  94         V                 0.653920          2.018098
  95         V                 0.657733          2.032251
  96         V                 0.671735          2.288651
  97         V                 0.682126          1.791741
  98         V                 0.682340          1.794957
  99         V                 0.682923          1.860535
 100         V                 0.701869          1.788261
 101         V                 0.702027          1.785322
 102         V                 0.702845          1.717533
 103         V                 0.845019          1.740980
 104         V                 0.848428          1.739278
 105         V                 0.925008          1.985614
 106         V                 0.942179          1.908395
 107         V                 0.944220          1.907239
 108         V                 0.944634          1.907826
 109         V                 0.983388          1.799272
 110         V                 1.019166          2.115868
 111         V                 1.019478          2.115885
 112         V                 1.021280          2.122078
 113         V                 1.109977          1.972716
 114         V                 1.110345          1.973085
 115         V                 1.112768          1.971768
 116         V                 1.198923          2.263040
 117         V                 1.199351          2.264341
 118         V                 1.199480          2.262873
 119         V                 1.290976          2.208532
 120         V                 1.292572          2.212527
 121         V                 1.354626          2.245904
 122         V                 1.357074          2.248468
 123         V                 1.387494          2.497690
 124         V                 1.387763          2.497719
 125         V                 1.388939          2.491049
 126         V                 1.421620          2.259383
 127         V                 1.421704          2.258913
 128         V                 1.422758          2.255093
 129         V                 1.432319          2.358286
 130         V                 1.488061          2.671681
 131         V                 1.488253          2.670995
 132         V                 1.491966          2.723595
 133         V                 1.492057          2.725637
 134         V                 1.492204          2.674281
 135         V                 1.492423          2.719075
 136         V                 1.512667          2.874043
 137         V                 1.514029          2.863800
 138         V                 1.514095          2.863849
 139         V                 1.620106          2.638772
 140         V                 1.621529          2.639064
 141         V                 1.621605          2.639354
 142         V                 1.639399          2.661341
 143         V                 1.641686          2.663208
 144         V                 1.641701          2.663110
 145         V                 1.650227          3.069570
 146         V                 1.650406          3.071944
 147         V                 1.668306          2.934312
 148         V                 1.707149          2.830140
 149         V                 1.709302          2.828784
 150         V                 1.709817          2.828355
 151         V                 1.712152          3.153823
 152         V                 1.713662          3.155456
 153         V                 1.721303          2.574605
 154         V                 1.722082          2.573511
 155         V                 1.722270          2.573996
 156         V                 1.764494          2.768946
 157         V                 1.765217          2.771006
 158         V                 1.765318          2.770637
 159         V                 1.775718          2.862318
 160         V                 1.778898          2.860856
 161         V                 1.779208          2.861258
 162         V                 1.802640          2.714575
 163         V                 1.817224          2.666547
 164         V                 1.931851          3.246924
 165         V                 1.932330          3.247340
 166         V                 1.934144          3.246963
 167         V                 1.978311          2.959589
 168         V                 1.979934          2.959366
 169         V                 2.006765          2.951363
 170         V                 2.006874          2.951721
 171         V                 2.007253          2.958001
 172         V                 2.034527          3.304929
 173         V                 2.036989          3.300946
 174         V                 2.037697          3.302223
 175         V                 2.080146          3.447926
 176         V                 2.080181          3.447813
 177         V                 2.080254          3.447698
 178         V                 2.201962          3.190798
 179         V                 2.205120          3.186026
 180         V                 2.220882          3.396874
 181         V                 2.221163          3.397578
 182         V                 2.224029          3.394228
 183         V                 2.228346          3.429692
 184         V                 2.228548          3.429838
 185         V                 2.230161          3.429323
 186         V                 2.263953          3.920205
 187         V                 2.351390          3.969062
 188         V                 2.354212          3.960489
 189         V                 2.387127          4.153092
 190         V                 2.387390          4.153439
 191         V                 2.393342          4.155107
 192         V                 2.431597          3.590371
 193         V                 2.454756          4.256856
 194         V                 2.456962          4.256808
 195         V                 2.457413          4.257520
 196         V                 2.505599          3.824703
 197         V                 2.505922          3.834993
 198         V                 2.579706          4.214348
 199         V                 2.580040          4.219232
 200         V                 2.580722          4.219437
 Total kinetic energy from orbitals= 3.844058173250D+02
 No NMR shielding tensors so no spin-rotation constants.
 Leave Link  601 at Fri Jul  3 06:42:26 2020, MaxMem= 16642998272 cpu:         5.7
 (Enter /home/fuchs/agschreiner/public/bin/gaussian09-E.01/g09/l9999.exe)

 Test job not archived.
 1\1\GINC-NODE30-020\SP\RPBEPBE\CC-pVDZ\C10H12\SCHWAN\03-Jul-2020\0\\#p
  cc-pVDZ pbepbe empiricaldispersion=gd3bj scf=(xqc,maxcycle=250) int=(
 grid=ultrafine,acc2E=11) iop(6/7=3) gfinput nosymm\\opt\\0,1\C,0,-4.13
 797797,0.5621563,1.33573516\C,0,-4.68191258,0.00704366,0.0017367\C,0,-
 4.13342253,0.87811956,-1.14894812\C,0,-2.59022965,0.88343017,-1.170525
 2\C,0,-2.10143046,-0.57145454,-1.32929762\C,0,-2.60891172,-1.47153411,
 -0.18280014\C,0,-2.10618184,-0.88759749,1.15421795\C,0,-2.59495474,0.5
 6120679,1.36299688\C,0,-2.08769715,1.4208981,0.1861579\C,0,-4.15184775
 ,-1.43144604,-0.18045678\H,0,-4.52697738,-0.0486145,2.18060157\H,0,-4.
 51341114,1.59822031,1.48974443\H,0,-4.51902744,0.49818966,-2.12109222\
 H,0,-4.50903769,1.91986481,-1.04022436\H,0,-2.44777239,-0.97809775,-2.
 30542915\H,0,-0.98941529,-0.58931225,-1.35287911\H,0,-2.45601896,-1.52
 548256,1.99613851\H,0,-0.99430962,-0.91249238,1.17577761\H,0,-0.975517
 05,1.43811036,0.19105575\H,0,-2.42372676,2.47324436,0.31948364\H,0,-4.
 53786002,-1.85330433,-1.13501534\H,0,-4.54079825,-2.07893037,0.6366082
 2\\Version=ES64L-G09RevE.01\HF=-387.5577915\RMSD=3.844e-03\Dipole=-0.0
 035807,-0.0009874,0.0023847\Quadrupole=0.0462908,0.1561211,-0.2024119,
 0.5900845,-0.7757657,0.6780823\PG=C01 [X(C10H12)]\\@


 THERE ARE PEOPLE SO ADDICTED TO EXAGERATING THEY
 CAN'T TELL THE TRUTH WITHOUT LYING. -- FORTUNE COOKIE
 Job cpu time:       0 days  2 hours  3 minutes 51.2 seconds.
 File lengths (MBytes):  RWF=     67 Int=      0 D2E=      0 Chk=      3 Scr=      1
 Normal termination of Gaussian 09 at Fri Jul  3 06:42:26 2020.
