 Entering Gaussian System, Link 0=/home/fuchs/agschreiner/public/bin/gaussian16-C.01/g16/g16
 Input=cluster.com
 Output=cluster.log
 Initial command:
 /home/fuchs/agschreiner/public/bin/gaussian09-E.01/g09/l1.exe "/scratch/fuchs/giessen/schwan/promotion/dimer_paper/bondshare/AdMe/mono2/Gau-3392.inp" -scrdir="/scratch/fuchs/giessen/schwan/promotion/dimer_paper/bondshare/AdMe/mono2/"
 Entering Link 1 = /home/fuchs/agschreiner/public/bin/gaussian09-E.01/g09/l1.exe PID=      3393.
  
 Copyright (c) 1988,1990,1992,1993,1995,1998,2003,2009,2015,
            Gaussian, Inc.  All Rights Reserved.
  
 This is part of the Gaussian(R) 09 program.  It is based on
 the Gaussian(R) 03 system (copyright 2003, Gaussian, Inc.),
 the Gaussian(R) 98 system (copyright 1998, Gaussian, Inc.),
 the Gaussian(R) 94 system (copyright 1995, Gaussian, Inc.),
 the Gaussian 92(TM) system (copyright 1992, Gaussian, Inc.),
 the Gaussian 90(TM) system (copyright 1990, Gaussian, Inc.),
 the Gaussian 88(TM) system (copyright 1988, Gaussian, Inc.),
 the Gaussian 86(TM) system (copyright 1986, Carnegie Mellon
 University), and the Gaussian 82(TM) system (copyright 1983,
 Carnegie Mellon University). Gaussian is a federally registered
 trademark of Gaussian, Inc.
  
 This software contains proprietary and confidential information,
 including trade secrets, belonging to Gaussian, Inc.
  
 This software is provided under written license and may be
 used, copied, transmitted, or stored only in accord with that
 written license.
  
 The following legend is applicable only to US Government
 contracts under FAR:
  
                    RESTRICTED RIGHTS LEGEND
  
 Use, reproduction and disclosure by the US Government is
 subject to restrictions as set forth in subparagraphs (a)
 and (c) of the Commercial Computer Software - Restricted
 Rights clause in FAR 52.227-19.
  
 Gaussian, Inc.
 340 Quinnipiac St., Bldg. 40, Wallingford CT 06492
  
  
 ---------------------------------------------------------------
 Warning -- This program may not be used in any manner that
 competes with the business of Gaussian, Inc. or will provide
 assistance to any competitor of Gaussian, Inc.  The licensee
 of this program is prohibited from giving any competitor of
 Gaussian, Inc. access to this program.  By using this program,
 the user acknowledges that Gaussian, Inc. is engaged in the
 business of creating and licensing software in the field of
 computational chemistry and represents and warrants to the
 licensee that it is not a competitor of Gaussian, Inc. and that
 it will not use this program in any manner prohibited above.
 ---------------------------------------------------------------
  

 Cite this work as:
 Gaussian 09, Revision E.01,
 M. J. Frisch, G. W. Trucks, H. B. Schlegel, G. E. Scuseria, 
 M. A. Robb, J. R. Cheeseman, G. Scalmani, V. Barone, B. Mennucci, 
 G. A. Petersson, H. Nakatsuji, M. Caricato, X. Li, H. P. Hratchian, 
 A. F. Izmaylov, J. Bloino, G. Zheng, J. L. Sonnenberg, M. Hada, 
 M. Ehara, K. Toyota, R. Fukuda, J. Hasegawa, M. Ishida, T. Nakajima, 
 Y. Honda, O. Kitao, H. Nakai, T. Vreven, J. A. Montgomery, Jr., 
 J. E. Peralta, F. Ogliaro, M. Bearpark, J. J. Heyd, E. Brothers, 
 K. N. Kudin, V. N. Staroverov, T. Keith, R. Kobayashi, J. Normand, 
 K. Raghavachari, A. Rendell, J. C. Burant, S. S. Iyengar, J. Tomasi, 
 M. Cossi, N. Rega, J. M. Millam, M. Klene, J. E. Knox, J. B. Cross, 
 V. Bakken, C. Adamo, J. Jaramillo, R. Gomperts, R. E. Stratmann, 
 O. Yazyev, A. J. Austin, R. Cammi, C. Pomelli, J. W. Ochterski, 
 R. L. Martin, K. Morokuma, V. G. Zakrzewski, G. A. Voth, 
 P. Salvador, J. J. Dannenberg, S. Dapprich, A. D. Daniels, 
 O. Farkas, J. B. Foresman, J. V. Ortiz, J. Cioslowski, 
 and D. J. Fox, Gaussian, Inc., Wallingford CT, 2013.
 
 ******************************************
 Gaussian 09:  ES64L-G09RevE.01 30-Nov-2015
                 3-Jul-2020 
 ******************************************
 %NProcShared=20
 Will use up to   20 processors via shared memory.
 %Mem=124GB
 %Chk=ziel1
 ----------------------------------------------------------------------
 #p cc-pVDZ pbepbe empiricaldispersion=gd3bj scf=(xqc,maxcycle=250) int
 =(grid=ultrafine,acc2E=11) iop(6/7=3) gfinput nosymm
 ----------------------------------------------------------------------
 1/38=1/1;
 2/12=2,15=1,17=6,18=5,40=1/2;
 3/5=16,11=2,16=1,24=10,25=1,30=1,74=1009,75=-5,124=41/1,2,3;
 4//1;
 5/5=2,7=250,8=3,13=1,38=5,87=11/2,8;
 6/7=3,8=2,9=2,10=2,28=1/1;
 99/5=1,9=1/99;
 Leave Link    1 at Fri Jul  3 06:42:48 2020, MaxMem= 16642998272 cpu:         3.3
 (Enter /home/fuchs/agschreiner/public/bin/gaussian09-E.01/g09/l101.exe)
 ---
 opt
 ---
 Symbolic Z-matrix:
 Charge =  0 Multiplicity = 1
 C                     4.15064  -0.09532  -1.43868 
 H                     4.53898   0.75802  -2.03795 
 H                     4.53644  -1.02369  -1.91558 
 C                     4.68181   0.00329   0.00757 
 C                     6.21285   0.0016    0.01774 
 H                     6.60568   0.07187   1.05342 
 H                     6.61718   0.86049  -0.55738 
 H                     6.6144   -0.92886  -0.43494 
 C                     4.13427  -1.19592   0.81113 
 H                     4.51082  -1.14758   1.85708 
 H                     4.51965  -2.1444    0.37529 
 C                     2.59111  -1.21808   0.81645 
 C                     2.07004  -2.41483   1.61714 
 H                     2.41436  -2.3714    2.6714 
 H                     0.96015  -2.43868   1.6241 
 H                     2.4264   -3.37191   1.18245 
 C                     2.08875   0.10494   1.43212 
 H                     2.42559   0.17688   2.49019 
 H                     0.97657   0.10868   1.45049 
 C                     2.5953    1.32979   0.64187 
 C                     2.07741   2.62527   1.27307 
 H                     2.4248    2.72507   2.3225 
 H                     0.96758   2.65095   1.28002 
 H                     2.43316   3.51404   0.71144 
 C                     2.10539   1.20517  -0.81635 
 H                     2.45467   2.08275  -1.40454 
 H                     0.99351   1.22809  -0.83896 
 C                     2.60771  -0.09556  -1.47738 
 C                     2.10176  -0.19276  -2.91936 
 H                     0.99212  -0.19186  -2.95431 
 H                     2.45508  -1.1259   -3.40547 
 H                     2.46033   0.66387  -3.52727 
 C                     2.10128  -1.29243  -0.64495 
 H                     0.98926  -1.31525  -0.66338 
 H                     2.44763  -2.24318  -1.10782 
 C                     4.13834   1.30279   0.63962 
 H                     4.51494   1.39666   1.68242 
 H                     4.52646   2.18163   0.07825 
 
 NAtoms=     38 NQM=       38 NQMF=       0 NMMI=      0 NMMIF=      0
                NMic=       0 NMicF=      0.
                    Isotopes and Nuclear Properties:
 (Nuclear quadrupole moments (NQMom) in fm**2, nuclear magnetic moments (NMagM)
  in nuclear magnetons)

  Atom         1           2           3           4           5           6           7           8           9          10
 IAtWgt=          12           1           1          12          12           1           1           1          12           1
 AtmWgt=  12.0000000   1.0078250   1.0078250  12.0000000  12.0000000   1.0078250   1.0078250   1.0078250  12.0000000   1.0078250
 NucSpn=           0           1           1           0           0           1           1           1           0           1
 AtZEff=   0.0000000   0.0000000   0.0000000   0.0000000   0.0000000   0.0000000   0.0000000   0.0000000   0.0000000   0.0000000
 NQMom=    0.0000000   0.0000000   0.0000000   0.0000000   0.0000000   0.0000000   0.0000000   0.0000000   0.0000000   0.0000000
 NMagM=    0.0000000   2.7928460   2.7928460   0.0000000   0.0000000   2.7928460   2.7928460   2.7928460   0.0000000   2.7928460
 AtZNuc=   6.0000000   1.0000000   1.0000000   6.0000000   6.0000000   1.0000000   1.0000000   1.0000000   6.0000000   1.0000000

  Atom        11          12          13          14          15          16          17          18          19          20
 IAtWgt=           1          12          12           1           1           1          12           1           1          12
 AtmWgt=   1.0078250  12.0000000  12.0000000   1.0078250   1.0078250   1.0078250  12.0000000   1.0078250   1.0078250  12.0000000
 NucSpn=           1           0           0           1           1           1           0           1           1           0
 AtZEff=   0.0000000   0.0000000   0.0000000   0.0000000   0.0000000   0.0000000   0.0000000   0.0000000   0.0000000   0.0000000
 NQMom=    0.0000000   0.0000000   0.0000000   0.0000000   0.0000000   0.0000000   0.0000000   0.0000000   0.0000000   0.0000000
 NMagM=    2.7928460   0.0000000   0.0000000   2.7928460   2.7928460   2.7928460   0.0000000   2.7928460   2.7928460   0.0000000
 AtZNuc=   1.0000000   6.0000000   6.0000000   1.0000000   1.0000000   1.0000000   6.0000000   1.0000000   1.0000000   6.0000000

  Atom        21          22          23          24          25          26          27          28          29          30
 IAtWgt=          12           1           1           1          12           1           1          12          12           1
 AtmWgt=  12.0000000   1.0078250   1.0078250   1.0078250  12.0000000   1.0078250   1.0078250  12.0000000  12.0000000   1.0078250
 NucSpn=           0           1           1           1           0           1           1           0           0           1
 AtZEff=   0.0000000   0.0000000   0.0000000   0.0000000   0.0000000   0.0000000   0.0000000   0.0000000   0.0000000   0.0000000
 NQMom=    0.0000000   0.0000000   0.0000000   0.0000000   0.0000000   0.0000000   0.0000000   0.0000000   0.0000000   0.0000000
 NMagM=    0.0000000   2.7928460   2.7928460   2.7928460   0.0000000   2.7928460   2.7928460   0.0000000   0.0000000   2.7928460
 AtZNuc=   6.0000000   1.0000000   1.0000000   1.0000000   6.0000000   1.0000000   1.0000000   6.0000000   6.0000000   1.0000000

  Atom        31          32          33          34          35          36          37          38
 IAtWgt=           1           1          12           1           1          12           1           1
 AtmWgt=   1.0078250   1.0078250  12.0000000   1.0078250   1.0078250  12.0000000   1.0078250   1.0078250
 NucSpn=           1           1           0           1           1           0           1           1
 AtZEff=   0.0000000   0.0000000   0.0000000   0.0000000   0.0000000   0.0000000   0.0000000   0.0000000
 NQMom=    0.0000000   0.0000000   0.0000000   0.0000000   0.0000000   0.0000000   0.0000000   0.0000000
 NMagM=    2.7928460   2.7928460   0.0000000   2.7928460   2.7928460   0.0000000   2.7928460   2.7928460
 AtZNuc=   1.0000000   1.0000000   6.0000000   1.0000000   1.0000000   6.0000000   1.0000000   1.0000000
 Leave Link  101 at Fri Jul  3 06:42:49 2020, MaxMem= 16642998272 cpu:         1.8
 (Enter /home/fuchs/agschreiner/public/bin/gaussian09-E.01/g09/l202.exe)
                          Input orientation:                          
 ---------------------------------------------------------------------
 Center     Atomic      Atomic             Coordinates (Angstroms)
 Number     Number       Type             X           Y           Z
 ---------------------------------------------------------------------
      1          6           0        4.150638   -0.095318   -1.438684
      2          1           0        4.538981    0.758021   -2.037952
      3          1           0        4.536439   -1.023689   -1.915575
      4          6           0        4.681812    0.003292    0.007574
      5          6           0        6.212847    0.001597    0.017736
      6          1           0        6.605681    0.071875    1.053424
      7          1           0        6.617179    0.860490   -0.557380
      8          1           0        6.614405   -0.928858   -0.434939
      9          6           0        4.134273   -1.195918    0.811131
     10          1           0        4.510816   -1.147576    1.857078
     11          1           0        4.519654   -2.144403    0.375285
     12          6           0        2.591110   -1.218078    0.816453
     13          6           0        2.070044   -2.414829    1.617139
     14          1           0        2.414360   -2.371397    2.671397
     15          1           0        0.960154   -2.438682    1.624097
     16          1           0        2.426398   -3.371914    1.182455
     17          6           0        2.088755    0.104937    1.432118
     18          1           0        2.425591    0.176881    2.490190
     19          1           0        0.976572    0.108682    1.450486
     20          6           0        2.595296    1.329788    0.641868
     21          6           0        2.077414    2.625270    1.273073
     22          1           0        2.424799    2.725069    2.322504
     23          1           0        0.967583    2.650945    1.280021
     24          1           0        2.433155    3.514044    0.711444
     25          6           0        2.105387    1.205169   -0.816350
     26          1           0        2.454670    2.082750   -1.404540
     27          1           0        0.993510    1.228087   -0.838959
     28          6           0        2.607708   -0.095558   -1.477378
     29          6           0        2.101764   -0.192757   -2.919357
     30          1           0        0.992118   -0.191857   -2.954310
     31          1           0        2.455076   -1.125905   -3.405466
     32          1           0        2.460327    0.663866   -3.527273
     33          6           0        2.101280   -1.292428   -0.644949
     34          1           0        0.989259   -1.315249   -0.663384
     35          1           0        2.447628   -2.243176   -1.107818
     36          6           0        4.138337    1.302790    0.639621
     37          1           0        4.514945    1.396659    1.682421
     38          1           0        4.526462    2.181630    0.078247
 ---------------------------------------------------------------------
                    Distance matrix (angstroms):
                    1          2          3          4          5
     1  C    0.000000
     2  H    1.112708   0.000000
     3  H    1.112717   1.785909   0.000000
     4  C    1.543869   2.184992   2.185023   0.000000
     5  C    2.526511   2.756784   2.756673   1.531069   0.000000
     6  H    3.502255   3.781356   3.781135   2.190840   1.109913
     7  H    2.788205   2.553723   3.118382   2.190800   1.109927
     8  H    2.787909   3.118107   2.553276   2.190807   1.109914
     9  C    2.504647   3.478353   2.761581   1.543894   2.526655
    10  H    3.478365   4.336283   3.774774   2.185041   2.756934
    11  H    2.761414   3.774672   2.550358   2.184972   2.756821
    12  C    2.962830   3.980803   3.359475   2.552855   3.904169
    13  C    4.364294   5.433444   4.527521   3.906321   5.055692
    14  H    5.008789   6.040301   5.230665   4.228055   5.205912
    15  H    5.005115   6.036350   5.226978   4.735729   6.010503
    16  H    4.536459   5.647158   4.423146   4.226021   5.203301
    17  C    3.540194   4.297850   4.297907   2.960339   4.361111
    18  H    4.299527   5.030727   5.030687   3.359174   4.526264
    19  H    4.296931   5.028081   5.028447   3.977676   5.429808
    20  C    2.962889   3.359504   3.980879   2.552542   3.903884
    21  C    4.365030   4.528667   5.434076   3.906295   5.055822
    22  H    5.007958   5.229973   6.039331   4.226237   5.203706
    23  H    5.006512   5.229436   6.037508   4.735471   6.010425
    24  H    4.538754   4.425985   5.649429   4.228152   5.206206
    25  C    2.502323   2.759463   3.476509   2.959954   4.360678
    26  H    2.760698   2.549602   3.774239   3.358329   4.525258
    27  H    3.475418   3.772123   4.333814   3.977476   5.429520
    28  C    1.543415   2.184640   2.184821   2.552794   3.904078
    29  C    2.529777   2.760594   2.761461   3.906662   5.056213
    30  H    3.504667   3.784470   3.785911   4.735470   6.010532
    31  H    2.793792   3.124408   2.561697   4.228744   5.206766
    32  H    2.792081   2.558856   3.123404   4.226878   5.204526
    33  C    2.502590   3.476662   2.759838   2.960375   4.361036
    34  H    3.476154   4.334560   3.772993   3.977900   5.429906
    35  H    2.760981   3.774399   2.550049   3.358913   4.525788
    36  C    2.504837   2.761646   3.478507   1.543872   2.526546
    37  H    3.478508   3.774867   4.336373   2.185047   2.756855
    38  H    2.761669   2.550514   3.774851   2.185014   2.756828
                    6          7          8          9         10
     6  H    0.000000
     7  H    1.793526   0.000000
     8  H    1.793534   1.793534   0.000000
     9  C    2.788164   3.502350   2.788380   0.000000
    10  H    2.553699   3.781362   3.118696   1.112711   0.000000
    11  H    3.118216   3.781383   2.553820   1.112701   1.785903
    12  C    4.223377   4.734669   4.223332   1.543332   2.184752
    13  C    5.203217   6.011046   5.202917   2.529117   2.760592
    14  H    5.114155   6.207558   5.419467   2.792927   2.560465
    15  H    6.204880   6.902558   6.204011   3.504342   3.785292
    16  H    5.416894   6.205071   5.111153   2.791000   3.122114
    17  C    4.532894   5.003557   5.003613   2.502398   2.759667
    18  H    4.421366   5.227276   5.227351   2.761053   2.550134
    19  H    5.643216   6.034334   6.034606   3.475893   3.772848
    20  C    4.223140   4.223029   4.734367   2.962481   3.359060
    21  C    5.203198   5.203313   6.011107   4.364119   4.527347
    22  H    5.111730   5.417234   6.205438   4.536595   4.423288
    23  H    6.204120   6.204813   6.902367   5.004612   5.226496
    24  H    5.419912   5.114422   6.207770   5.008740   5.230665
    25  C    5.003305   4.532343   5.003078   3.539816   4.297525
    26  H    5.226481   4.420190   5.226213   4.298829   5.030000
    27  H    6.034435   5.642700   6.034079   4.296859   5.028303
    28  C    4.734636   4.223302   4.223113   2.962848   3.980849
    29  C    6.011513   5.203579   5.203662   4.365085   5.434109
    30  H    6.902433   6.204355   6.204878   5.005979   6.036894
    31  H    6.208373   5.420374   5.114966   4.539196   5.649859
    32  H    6.206223   5.112567   5.418086   5.008257   6.039624
    33  C    5.003541   5.003605   4.532613   2.502508   3.476634
    34  H    6.034546   6.034779   5.643027   3.475565   4.333845
    35  H    5.226838   5.226938   4.420659   2.761139   3.774612
    36  C    2.788220   2.788027   3.502262   2.504590   2.761383
    37  H    2.553795   3.118264   3.781398   2.761434   2.550227
    38  H    3.118524   2.553533   3.781270   3.478328   3.774666
                   11         12         13         14         15
    11  H    0.000000
    12  C    2.184489   0.000000
    13  C    2.759695   1.531281   0.000000
    14  H    3.123447   2.191393   1.109910   0.000000
    15  H    3.783672   2.191388   1.110169   1.793343   0.000000
    16  H    2.557347   2.190913   1.109933   1.793915   1.793277
    17  C    3.476449   1.543299   2.526619   2.788200   2.789372
    18  H    3.774425   2.185109   2.757824   2.554737   3.120704
    19  H    4.334268   2.183809   2.755279   3.115871   2.553326
    20  C    3.980480   2.553844   3.905022   4.224985   4.223722
    21  C    5.433262   3.904319   5.051834   5.199569   5.197605
    22  H    5.647286   4.224247   5.200187   5.108405   5.412697
    23  H    6.035820   4.221383   5.195300   5.408606   5.101250
    24  H    6.040240   4.735922   6.008633   6.203240   6.199808
    25  C    4.297478   2.962111   4.362053   5.005165   4.532659
    26  H    5.029986   3.980815   5.432007   6.037741   5.643542
    27  H    5.028099   3.358041   4.523514   5.224720   4.417347
    28  C    3.359414   2.553818   3.904374   4.735944   4.221826
    29  C    4.528773   3.904743   5.051575   6.008388   5.195231
    30  H    5.228972   4.222387   5.196313   6.198528   5.100103
    31  H    4.426500   4.225116   5.199629   6.203320   5.408760
    32  H    5.230408   4.735691   6.007966   6.902061   6.197817
    33  C    2.759578   1.543100   2.525431   3.501478   2.786510
    34  H    3.772270   2.182954   2.752809   3.777185   2.548631
    35  H    2.550028   2.185002   2.756343   3.781536   3.116755
    36  C    3.478277   2.963099   4.365096   4.538707   5.006861
    37  H    3.774619   3.359746   4.528713   4.425921   5.229702
    38  H    4.336225   3.981024   5.434116   5.649377   6.037838
                   16         17         18         19         20
    16  H    0.000000
    17  C    3.502118   0.000000
    18  H    3.782079   1.112722   0.000000
    19  H    3.779998   1.112341   1.784738   0.000000
    20  C    4.735690   1.543159   2.185014   2.182941   0.000000
    21  C    6.008013   2.525371   2.756303   2.752552   1.531305
    22  H    6.202655   2.787617   2.553700   3.115006   2.190986
    23  H    6.197782   2.786094   3.116294   2.547988   2.191380
    24  H    6.902052   3.501427   3.781620   3.776812   2.191371
    25  C    5.004794   2.503278   3.477515   2.759539   1.543353
    26  H    6.037111   3.477394   4.336139   3.772651   2.185066
    27  H    5.224873   2.760221   3.773476   2.548512   2.183783
    28  C    4.223990   2.962209   3.981078   3.357783   2.554010
    29  C    5.199739   4.361666   5.431822   4.522438   3.904361
    30  H    5.411353   4.531164   5.642108   4.415064   4.221146
    31  H    5.108268   5.005136   6.037953   5.224026   4.736137
    32  H    6.202436   5.004601   6.037236   5.223776   4.224145
    33  C    2.787359   2.503397   3.477520   2.760240   2.962426
    34  H    3.114862   2.759882   3.772867   2.548761   3.358460
    35  H    2.553400   3.477600   4.336222   3.773614   3.981115
    36  C    5.007820   2.502737   2.761481   3.475652   1.543280
    37  H    5.229846   2.760000   2.550637   3.772634   2.184554
    38  H    6.039156   3.476786   3.774937   4.333806   2.184653
                   21         22         23         24         25
    21  C    0.000000
    22  H    1.109928   0.000000
    23  H    1.110150   1.793249   0.000000
    24  H    1.109909   1.793896   1.793355   0.000000
    25  C    2.526491   3.502074   2.789201   2.787918   0.000000
    26  H    2.757946   3.782106   3.121081   2.554692   1.112706
    27  H    2.754568   3.779470   2.552503   3.114791   1.112343
    28  C    3.905010   4.735874   4.223333   4.225002   1.543106
    29  C    5.051568   6.007925   5.196902   5.199318   2.525242
    30  H    5.194693   6.197241   5.100165   5.408146   2.786022
    31  H    6.008550   6.902214   6.199276   6.203108   3.501387
    32  H    5.199716   6.202395   5.411732   5.107932   2.787130
    33  C    4.362080   5.005071   4.532216   5.005209   2.503475
    34  H    4.523454   5.224985   4.416785   5.224659   2.760733
    35  H    5.432078   6.037474   5.643114   6.037840   3.477524
    36  C    2.529352   2.791270   3.504471   2.793286   2.502453
    37  H    2.760182   2.557946   3.784037   3.124094   3.476564
    38  H    2.760844   3.122339   3.785517   2.560897   2.759599
                   26         27         28         29         30
    26  H    0.000000
    27  H    1.784747   0.000000
    28  C    2.184892   2.182946   0.000000
    29  C    2.756292   2.752287   1.531251   0.000000
    30  H    3.116838   2.547735   2.191058   1.110197   0.000000
    31  H    3.781424   3.776826   2.191446   1.109908   1.793386
    32  H    2.553284   3.113990   2.191008   1.109925   1.793373
    33  C    3.477599   2.760035   1.543342   2.526303   2.788305
    34  H    3.774009   2.549393   2.183944   2.754464   2.551540
    35  H    4.336096   3.773118   2.185055   2.757810   3.120249
    36  C    2.760737   3.475877   2.963087   4.364701   5.004898
    37  H    3.774226   4.334314   3.981030   5.433788   6.035973
    38  H    2.549658   3.772567   3.359639   4.527969   5.226990
                   31         32         33         34         35
    31  H    0.000000
    32  H    1.793919   0.000000
    33  C    2.788074   3.501970   0.000000
    34  H    3.115042   3.779259   1.112409   0.000000
    35  H    2.554905   3.782171   1.112711   1.784772   0.000000
    36  C    5.009457   4.537284   3.540463   4.297516   4.299525
    37  H    6.040943   5.647951   4.298095   5.028689   5.030670
    38  H    5.231317   4.424058   4.298093   5.028915   5.030628
                   36         37         38
    36  C    0.000000
    37  H    1.112689   0.000000
    38  H    1.112719   1.785970   0.000000
 Symmetry turned off by external request.
 Stoichiometry    C14H24
 Framework group  C1[X(C14H24)]
 Deg. of freedom   108
 Full point group                 C1      NOp   1
 Rotational constants (GHZ):      0.7258986      0.7255920      0.7255573
 Leave Link  202 at Fri Jul  3 06:42:49 2020, MaxMem= 16642998272 cpu:         0.2
 (Enter /home/fuchs/agschreiner/public/bin/gaussian09-E.01/g09/l301.exe)
 Standard basis: CC-pVDZ (5D, 7F)
 Ernie: Thresh=  0.10000D-02 Tol=  0.10000D-05 Strict=F.
 Ernie:  28 primitive shells out of 428 were deleted.
 AO basis set in the form of general basis input (Overlap normalization):
      1 0
 S   7 1.00       0.000000000000
      0.6665000000D+04  0.6935163173D-03
      0.1000000000D+04  0.5341502433D-02
      0.2280000000D+03  0.2713667141D-01
      0.6471000000D+02  0.1019923853D+00
      0.2106000000D+02  0.2755086365D+00
      0.7495000000D+01  0.4510864331D+00
      0.2797000000D+01  0.2875657448D+00
 S   7 1.00       0.000000000000
      0.6665000000D+04  0.7733547404D-05
      0.2280000000D+03  0.2780721367D-03
      0.6471000000D+02 -0.2578756542D-02
      0.2106000000D+02 -0.8950876838D-02
      0.7495000000D+01 -0.1060588547D+00
      0.2797000000D+01 -0.1315176856D+00
      0.5215000000D+00  0.1099486598D+01
 S   1 1.00       0.000000000000
      0.1596000000D+00  0.1000000000D+01
 P   3 1.00       0.000000000000
      0.9439000000D+01  0.5697925159D-01
      0.2002000000D+01  0.3132072115D+00
      0.5456000000D+00  0.7603767417D+00
 P   1 1.00       0.000000000000
      0.1517000000D+00  0.1000000000D+01
 D   1 1.00       0.000000000000
      0.5500000000D+00  0.1000000000D+01
 ****
      2 0
 S   3 1.00       0.000000000000
      0.1301000000D+02  0.3349872639D-01
      0.1962000000D+01  0.2348008012D+00
      0.4446000000D+00  0.8136829579D+00
 S   1 1.00       0.000000000000
      0.1220000000D+00  0.1000000000D+01
 P   1 1.00       0.000000000000
      0.7270000000D+00  0.1000000000D+01
 ****
      3 0
 S   3 1.00       0.000000000000
      0.1301000000D+02  0.3349872639D-01
      0.1962000000D+01  0.2348008012D+00
      0.4446000000D+00  0.8136829579D+00
 S   1 1.00       0.000000000000
      0.1220000000D+00  0.1000000000D+01
 P   1 1.00       0.000000000000
      0.7270000000D+00  0.1000000000D+01
 ****
      4 0
 S   7 1.00       0.000000000000
      0.6665000000D+04  0.6935163173D-03
      0.1000000000D+04  0.5341502433D-02
      0.2280000000D+03  0.2713667141D-01
      0.6471000000D+02  0.1019923853D+00
      0.2106000000D+02  0.2755086365D+00
      0.7495000000D+01  0.4510864331D+00
      0.2797000000D+01  0.2875657448D+00
 S   7 1.00       0.000000000000
      0.6665000000D+04  0.7733547404D-05
      0.2280000000D+03  0.2780721367D-03
      0.6471000000D+02 -0.2578756542D-02
      0.2106000000D+02 -0.8950876838D-02
      0.7495000000D+01 -0.1060588547D+00
      0.2797000000D+01 -0.1315176856D+00
      0.5215000000D+00  0.1099486598D+01
 S   1 1.00       0.000000000000
      0.1596000000D+00  0.1000000000D+01
 P   3 1.00       0.000000000000
      0.9439000000D+01  0.5697925159D-01
      0.2002000000D+01  0.3132072115D+00
      0.5456000000D+00  0.7603767417D+00
 P   1 1.00       0.000000000000
      0.1517000000D+00  0.1000000000D+01
 D   1 1.00       0.000000000000
      0.5500000000D+00  0.1000000000D+01
 ****
      5 0
 S   7 1.00       0.000000000000
      0.6665000000D+04  0.6935163173D-03
      0.1000000000D+04  0.5341502433D-02
      0.2280000000D+03  0.2713667141D-01
      0.6471000000D+02  0.1019923853D+00
      0.2106000000D+02  0.2755086365D+00
      0.7495000000D+01  0.4510864331D+00
      0.2797000000D+01  0.2875657448D+00
 S   7 1.00       0.000000000000
      0.6665000000D+04  0.7733547404D-05
      0.2280000000D+03  0.2780721367D-03
      0.6471000000D+02 -0.2578756542D-02
      0.2106000000D+02 -0.8950876838D-02
      0.7495000000D+01 -0.1060588547D+00
      0.2797000000D+01 -0.1315176856D+00
      0.5215000000D+00  0.1099486598D+01
 S   1 1.00       0.000000000000
      0.1596000000D+00  0.1000000000D+01
 P   3 1.00       0.000000000000
      0.9439000000D+01  0.5697925159D-01
      0.2002000000D+01  0.3132072115D+00
      0.5456000000D+00  0.7603767417D+00
 P   1 1.00       0.000000000000
      0.1517000000D+00  0.1000000000D+01
 D   1 1.00       0.000000000000
      0.5500000000D+00  0.1000000000D+01
 ****
      6 0
 S   3 1.00       0.000000000000
      0.1301000000D+02  0.3349872639D-01
      0.1962000000D+01  0.2348008012D+00
      0.4446000000D+00  0.8136829579D+00
 S   1 1.00       0.000000000000
      0.1220000000D+00  0.1000000000D+01
 P   1 1.00       0.000000000000
      0.7270000000D+00  0.1000000000D+01
 ****
      7 0
 S   3 1.00       0.000000000000
      0.1301000000D+02  0.3349872639D-01
      0.1962000000D+01  0.2348008012D+00
      0.4446000000D+00  0.8136829579D+00
 S   1 1.00       0.000000000000
      0.1220000000D+00  0.1000000000D+01
 P   1 1.00       0.000000000000
      0.7270000000D+00  0.1000000000D+01
 ****
      8 0
 S   3 1.00       0.000000000000
      0.1301000000D+02  0.3349872639D-01
      0.1962000000D+01  0.2348008012D+00
      0.4446000000D+00  0.8136829579D+00
 S   1 1.00       0.000000000000
      0.1220000000D+00  0.1000000000D+01
 P   1 1.00       0.000000000000
      0.7270000000D+00  0.1000000000D+01
 ****
      9 0
 S   7 1.00       0.000000000000
      0.6665000000D+04  0.6935163173D-03
      0.1000000000D+04  0.5341502433D-02
      0.2280000000D+03  0.2713667141D-01
      0.6471000000D+02  0.1019923853D+00
      0.2106000000D+02  0.2755086365D+00
      0.7495000000D+01  0.4510864331D+00
      0.2797000000D+01  0.2875657448D+00
 S   7 1.00       0.000000000000
      0.6665000000D+04  0.7733547404D-05
      0.2280000000D+03  0.2780721367D-03
      0.6471000000D+02 -0.2578756542D-02
      0.2106000000D+02 -0.8950876838D-02
      0.7495000000D+01 -0.1060588547D+00
      0.2797000000D+01 -0.1315176856D+00
      0.5215000000D+00  0.1099486598D+01
 S   1 1.00       0.000000000000
      0.1596000000D+00  0.1000000000D+01
 P   3 1.00       0.000000000000
      0.9439000000D+01  0.5697925159D-01
      0.2002000000D+01  0.3132072115D+00
      0.5456000000D+00  0.7603767417D+00
 P   1 1.00       0.000000000000
      0.1517000000D+00  0.1000000000D+01
 D   1 1.00       0.000000000000
      0.5500000000D+00  0.1000000000D+01
 ****
     10 0
 S   3 1.00       0.000000000000
      0.1301000000D+02  0.3349872639D-01
      0.1962000000D+01  0.2348008012D+00
      0.4446000000D+00  0.8136829579D+00
 S   1 1.00       0.000000000000
      0.1220000000D+00  0.1000000000D+01
 P   1 1.00       0.000000000000
      0.7270000000D+00  0.1000000000D+01
 ****
     11 0
 S   3 1.00       0.000000000000
      0.1301000000D+02  0.3349872639D-01
      0.1962000000D+01  0.2348008012D+00
      0.4446000000D+00  0.8136829579D+00
 S   1 1.00       0.000000000000
      0.1220000000D+00  0.1000000000D+01
 P   1 1.00       0.000000000000
      0.7270000000D+00  0.1000000000D+01
 ****
     12 0
 S   7 1.00       0.000000000000
      0.6665000000D+04  0.6935163173D-03
      0.1000000000D+04  0.5341502433D-02
      0.2280000000D+03  0.2713667141D-01
      0.6471000000D+02  0.1019923853D+00
      0.2106000000D+02  0.2755086365D+00
      0.7495000000D+01  0.4510864331D+00
      0.2797000000D+01  0.2875657448D+00
 S   7 1.00       0.000000000000
      0.6665000000D+04  0.7733547404D-05
      0.2280000000D+03  0.2780721367D-03
      0.6471000000D+02 -0.2578756542D-02
      0.2106000000D+02 -0.8950876838D-02
      0.7495000000D+01 -0.1060588547D+00
      0.2797000000D+01 -0.1315176856D+00
      0.5215000000D+00  0.1099486598D+01
 S   1 1.00       0.000000000000
      0.1596000000D+00  0.1000000000D+01
 P   3 1.00       0.000000000000
      0.9439000000D+01  0.5697925159D-01
      0.2002000000D+01  0.3132072115D+00
      0.5456000000D+00  0.7603767417D+00
 P   1 1.00       0.000000000000
      0.1517000000D+00  0.1000000000D+01
 D   1 1.00       0.000000000000
      0.5500000000D+00  0.1000000000D+01
 ****
     13 0
 S   7 1.00       0.000000000000
      0.6665000000D+04  0.6935163173D-03
      0.1000000000D+04  0.5341502433D-02
      0.2280000000D+03  0.2713667141D-01
      0.6471000000D+02  0.1019923853D+00
      0.2106000000D+02  0.2755086365D+00
      0.7495000000D+01  0.4510864331D+00
      0.2797000000D+01  0.2875657448D+00
 S   7 1.00       0.000000000000
      0.6665000000D+04  0.7733547404D-05
      0.2280000000D+03  0.2780721367D-03
      0.6471000000D+02 -0.2578756542D-02
      0.2106000000D+02 -0.8950876838D-02
      0.7495000000D+01 -0.1060588547D+00
      0.2797000000D+01 -0.1315176856D+00
      0.5215000000D+00  0.1099486598D+01
 S   1 1.00       0.000000000000
      0.1596000000D+00  0.1000000000D+01
 P   3 1.00       0.000000000000
      0.9439000000D+01  0.5697925159D-01
      0.2002000000D+01  0.3132072115D+00
      0.5456000000D+00  0.7603767417D+00
 P   1 1.00       0.000000000000
      0.1517000000D+00  0.1000000000D+01
 D   1 1.00       0.000000000000
      0.5500000000D+00  0.1000000000D+01
 ****
     14 0
 S   3 1.00       0.000000000000
      0.1301000000D+02  0.3349872639D-01
      0.1962000000D+01  0.2348008012D+00
      0.4446000000D+00  0.8136829579D+00
 S   1 1.00       0.000000000000
      0.1220000000D+00  0.1000000000D+01
 P   1 1.00       0.000000000000
      0.7270000000D+00  0.1000000000D+01
 ****
     15 0
 S   3 1.00       0.000000000000
      0.1301000000D+02  0.3349872639D-01
      0.1962000000D+01  0.2348008012D+00
      0.4446000000D+00  0.8136829579D+00
 S   1 1.00       0.000000000000
      0.1220000000D+00  0.1000000000D+01
 P   1 1.00       0.000000000000
      0.7270000000D+00  0.1000000000D+01
 ****
     16 0
 S   3 1.00       0.000000000000
      0.1301000000D+02  0.3349872639D-01
      0.1962000000D+01  0.2348008012D+00
      0.4446000000D+00  0.8136829579D+00
 S   1 1.00       0.000000000000
      0.1220000000D+00  0.1000000000D+01
 P   1 1.00       0.000000000000
      0.7270000000D+00  0.1000000000D+01
 ****
     17 0
 S   7 1.00       0.000000000000
      0.6665000000D+04  0.6935163173D-03
      0.1000000000D+04  0.5341502433D-02
      0.2280000000D+03  0.2713667141D-01
      0.6471000000D+02  0.1019923853D+00
      0.2106000000D+02  0.2755086365D+00
      0.7495000000D+01  0.4510864331D+00
      0.2797000000D+01  0.2875657448D+00
 S   7 1.00       0.000000000000
      0.6665000000D+04  0.7733547404D-05
      0.2280000000D+03  0.2780721367D-03
      0.6471000000D+02 -0.2578756542D-02
      0.2106000000D+02 -0.8950876838D-02
      0.7495000000D+01 -0.1060588547D+00
      0.2797000000D+01 -0.1315176856D+00
      0.5215000000D+00  0.1099486598D+01
 S   1 1.00       0.000000000000
      0.1596000000D+00  0.1000000000D+01
 P   3 1.00       0.000000000000
      0.9439000000D+01  0.5697925159D-01
      0.2002000000D+01  0.3132072115D+00
      0.5456000000D+00  0.7603767417D+00
 P   1 1.00       0.000000000000
      0.1517000000D+00  0.1000000000D+01
 D   1 1.00       0.000000000000
      0.5500000000D+00  0.1000000000D+01
 ****
     18 0
 S   3 1.00       0.000000000000
      0.1301000000D+02  0.3349872639D-01
      0.1962000000D+01  0.2348008012D+00
      0.4446000000D+00  0.8136829579D+00
 S   1 1.00       0.000000000000
      0.1220000000D+00  0.1000000000D+01
 P   1 1.00       0.000000000000
      0.7270000000D+00  0.1000000000D+01
 ****
     19 0
 S   3 1.00       0.000000000000
      0.1301000000D+02  0.3349872639D-01
      0.1962000000D+01  0.2348008012D+00
      0.4446000000D+00  0.8136829579D+00
 S   1 1.00       0.000000000000
      0.1220000000D+00  0.1000000000D+01
 P   1 1.00       0.000000000000
      0.7270000000D+00  0.1000000000D+01
 ****
     20 0
 S   7 1.00       0.000000000000
      0.6665000000D+04  0.6935163173D-03
      0.1000000000D+04  0.5341502433D-02
      0.2280000000D+03  0.2713667141D-01
      0.6471000000D+02  0.1019923853D+00
      0.2106000000D+02  0.2755086365D+00
      0.7495000000D+01  0.4510864331D+00
      0.2797000000D+01  0.2875657448D+00
 S   7 1.00       0.000000000000
      0.6665000000D+04  0.7733547404D-05
      0.2280000000D+03  0.2780721367D-03
      0.6471000000D+02 -0.2578756542D-02
      0.2106000000D+02 -0.8950876838D-02
      0.7495000000D+01 -0.1060588547D+00
      0.2797000000D+01 -0.1315176856D+00
      0.5215000000D+00  0.1099486598D+01
 S   1 1.00       0.000000000000
      0.1596000000D+00  0.1000000000D+01
 P   3 1.00       0.000000000000
      0.9439000000D+01  0.5697925159D-01
      0.2002000000D+01  0.3132072115D+00
      0.5456000000D+00  0.7603767417D+00
 P   1 1.00       0.000000000000
      0.1517000000D+00  0.1000000000D+01
 D   1 1.00       0.000000000000
      0.5500000000D+00  0.1000000000D+01
 ****
     21 0
 S   7 1.00       0.000000000000
      0.6665000000D+04  0.6935163173D-03
      0.1000000000D+04  0.5341502433D-02
      0.2280000000D+03  0.2713667141D-01
      0.6471000000D+02  0.1019923853D+00
      0.2106000000D+02  0.2755086365D+00
      0.7495000000D+01  0.4510864331D+00
      0.2797000000D+01  0.2875657448D+00
 S   7 1.00       0.000000000000
      0.6665000000D+04  0.7733547404D-05
      0.2280000000D+03  0.2780721367D-03
      0.6471000000D+02 -0.2578756542D-02
      0.2106000000D+02 -0.8950876838D-02
      0.7495000000D+01 -0.1060588547D+00
      0.2797000000D+01 -0.1315176856D+00
      0.5215000000D+00  0.1099486598D+01
 S   1 1.00       0.000000000000
      0.1596000000D+00  0.1000000000D+01
 P   3 1.00       0.000000000000
      0.9439000000D+01  0.5697925159D-01
      0.2002000000D+01  0.3132072115D+00
      0.5456000000D+00  0.7603767417D+00
 P   1 1.00       0.000000000000
      0.1517000000D+00  0.1000000000D+01
 D   1 1.00       0.000000000000
      0.5500000000D+00  0.1000000000D+01
 ****
     22 0
 S   3 1.00       0.000000000000
      0.1301000000D+02  0.3349872639D-01
      0.1962000000D+01  0.2348008012D+00
      0.4446000000D+00  0.8136829579D+00
 S   1 1.00       0.000000000000
      0.1220000000D+00  0.1000000000D+01
 P   1 1.00       0.000000000000
      0.7270000000D+00  0.1000000000D+01
 ****
     23 0
 S   3 1.00       0.000000000000
      0.1301000000D+02  0.3349872639D-01
      0.1962000000D+01  0.2348008012D+00
      0.4446000000D+00  0.8136829579D+00
 S   1 1.00       0.000000000000
      0.1220000000D+00  0.1000000000D+01
 P   1 1.00       0.000000000000
      0.7270000000D+00  0.1000000000D+01
 ****
     24 0
 S   3 1.00       0.000000000000
      0.1301000000D+02  0.3349872639D-01
      0.1962000000D+01  0.2348008012D+00
      0.4446000000D+00  0.8136829579D+00
 S   1 1.00       0.000000000000
      0.1220000000D+00  0.1000000000D+01
 P   1 1.00       0.000000000000
      0.7270000000D+00  0.1000000000D+01
 ****
     25 0
 S   7 1.00       0.000000000000
      0.6665000000D+04  0.6935163173D-03
      0.1000000000D+04  0.5341502433D-02
      0.2280000000D+03  0.2713667141D-01
      0.6471000000D+02  0.1019923853D+00
      0.2106000000D+02  0.2755086365D+00
      0.7495000000D+01  0.4510864331D+00
      0.2797000000D+01  0.2875657448D+00
 S   7 1.00       0.000000000000
      0.6665000000D+04  0.7733547404D-05
      0.2280000000D+03  0.2780721367D-03
      0.6471000000D+02 -0.2578756542D-02
      0.2106000000D+02 -0.8950876838D-02
      0.7495000000D+01 -0.1060588547D+00
      0.2797000000D+01 -0.1315176856D+00
      0.5215000000D+00  0.1099486598D+01
 S   1 1.00       0.000000000000
      0.1596000000D+00  0.1000000000D+01
 P   3 1.00       0.000000000000
      0.9439000000D+01  0.5697925159D-01
      0.2002000000D+01  0.3132072115D+00
      0.5456000000D+00  0.7603767417D+00
 P   1 1.00       0.000000000000
      0.1517000000D+00  0.1000000000D+01
 D   1 1.00       0.000000000000
      0.5500000000D+00  0.1000000000D+01
 ****
     26 0
 S   3 1.00       0.000000000000
      0.1301000000D+02  0.3349872639D-01
      0.1962000000D+01  0.2348008012D+00
      0.4446000000D+00  0.8136829579D+00
 S   1 1.00       0.000000000000
      0.1220000000D+00  0.1000000000D+01
 P   1 1.00       0.000000000000
      0.7270000000D+00  0.1000000000D+01
 ****
     27 0
 S   3 1.00       0.000000000000
      0.1301000000D+02  0.3349872639D-01
      0.1962000000D+01  0.2348008012D+00
      0.4446000000D+00  0.8136829579D+00
 S   1 1.00       0.000000000000
      0.1220000000D+00  0.1000000000D+01
 P   1 1.00       0.000000000000
      0.7270000000D+00  0.1000000000D+01
 ****
     28 0
 S   7 1.00       0.000000000000
      0.6665000000D+04  0.6935163173D-03
      0.1000000000D+04  0.5341502433D-02
      0.2280000000D+03  0.2713667141D-01
      0.6471000000D+02  0.1019923853D+00
      0.2106000000D+02  0.2755086365D+00
      0.7495000000D+01  0.4510864331D+00
      0.2797000000D+01  0.2875657448D+00
 S   7 1.00       0.000000000000
      0.6665000000D+04  0.7733547404D-05
      0.2280000000D+03  0.2780721367D-03
      0.6471000000D+02 -0.2578756542D-02
      0.2106000000D+02 -0.8950876838D-02
      0.7495000000D+01 -0.1060588547D+00
      0.2797000000D+01 -0.1315176856D+00
      0.5215000000D+00  0.1099486598D+01
 S   1 1.00       0.000000000000
      0.1596000000D+00  0.1000000000D+01
 P   3 1.00       0.000000000000
      0.9439000000D+01  0.5697925159D-01
      0.2002000000D+01  0.3132072115D+00
      0.5456000000D+00  0.7603767417D+00
 P   1 1.00       0.000000000000
      0.1517000000D+00  0.1000000000D+01
 D   1 1.00       0.000000000000
      0.5500000000D+00  0.1000000000D+01
 ****
     29 0
 S   7 1.00       0.000000000000
      0.6665000000D+04  0.6935163173D-03
      0.1000000000D+04  0.5341502433D-02
      0.2280000000D+03  0.2713667141D-01
      0.6471000000D+02  0.1019923853D+00
      0.2106000000D+02  0.2755086365D+00
      0.7495000000D+01  0.4510864331D+00
      0.2797000000D+01  0.2875657448D+00
 S   7 1.00       0.000000000000
      0.6665000000D+04  0.7733547404D-05
      0.2280000000D+03  0.2780721367D-03
      0.6471000000D+02 -0.2578756542D-02
      0.2106000000D+02 -0.8950876838D-02
      0.7495000000D+01 -0.1060588547D+00
      0.2797000000D+01 -0.1315176856D+00
      0.5215000000D+00  0.1099486598D+01
 S   1 1.00       0.000000000000
      0.1596000000D+00  0.1000000000D+01
 P   3 1.00       0.000000000000
      0.9439000000D+01  0.5697925159D-01
      0.2002000000D+01  0.3132072115D+00
      0.5456000000D+00  0.7603767417D+00
 P   1 1.00       0.000000000000
      0.1517000000D+00  0.1000000000D+01
 D   1 1.00       0.000000000000
      0.5500000000D+00  0.1000000000D+01
 ****
     30 0
 S   3 1.00       0.000000000000
      0.1301000000D+02  0.3349872639D-01
      0.1962000000D+01  0.2348008012D+00
      0.4446000000D+00  0.8136829579D+00
 S   1 1.00       0.000000000000
      0.1220000000D+00  0.1000000000D+01
 P   1 1.00       0.000000000000
      0.7270000000D+00  0.1000000000D+01
 ****
     31 0
 S   3 1.00       0.000000000000
      0.1301000000D+02  0.3349872639D-01
      0.1962000000D+01  0.2348008012D+00
      0.4446000000D+00  0.8136829579D+00
 S   1 1.00       0.000000000000
      0.1220000000D+00  0.1000000000D+01
 P   1 1.00       0.000000000000
      0.7270000000D+00  0.1000000000D+01
 ****
     32 0
 S   3 1.00       0.000000000000
      0.1301000000D+02  0.3349872639D-01
      0.1962000000D+01  0.2348008012D+00
      0.4446000000D+00  0.8136829579D+00
 S   1 1.00       0.000000000000
      0.1220000000D+00  0.1000000000D+01
 P   1 1.00       0.000000000000
      0.7270000000D+00  0.1000000000D+01
 ****
     33 0
 S   7 1.00       0.000000000000
      0.6665000000D+04  0.6935163173D-03
      0.1000000000D+04  0.5341502433D-02
      0.2280000000D+03  0.2713667141D-01
      0.6471000000D+02  0.1019923853D+00
      0.2106000000D+02  0.2755086365D+00
      0.7495000000D+01  0.4510864331D+00
      0.2797000000D+01  0.2875657448D+00
 S   7 1.00       0.000000000000
      0.6665000000D+04  0.7733547404D-05
      0.2280000000D+03  0.2780721367D-03
      0.6471000000D+02 -0.2578756542D-02
      0.2106000000D+02 -0.8950876838D-02
      0.7495000000D+01 -0.1060588547D+00
      0.2797000000D+01 -0.1315176856D+00
      0.5215000000D+00  0.1099486598D+01
 S   1 1.00       0.000000000000
      0.1596000000D+00  0.1000000000D+01
 P   3 1.00       0.000000000000
      0.9439000000D+01  0.5697925159D-01
      0.2002000000D+01  0.3132072115D+00
      0.5456000000D+00  0.7603767417D+00
 P   1 1.00       0.000000000000
      0.1517000000D+00  0.1000000000D+01
 D   1 1.00       0.000000000000
      0.5500000000D+00  0.1000000000D+01
 ****
     34 0
 S   3 1.00       0.000000000000
      0.1301000000D+02  0.3349872639D-01
      0.1962000000D+01  0.2348008012D+00
      0.4446000000D+00  0.8136829579D+00
 S   1 1.00       0.000000000000
      0.1220000000D+00  0.1000000000D+01
 P   1 1.00       0.000000000000
      0.7270000000D+00  0.1000000000D+01
 ****
     35 0
 S   3 1.00       0.000000000000
      0.1301000000D+02  0.3349872639D-01
      0.1962000000D+01  0.2348008012D+00
      0.4446000000D+00  0.8136829579D+00
 S   1 1.00       0.000000000000
      0.1220000000D+00  0.1000000000D+01
 P   1 1.00       0.000000000000
      0.7270000000D+00  0.1000000000D+01
 ****
     36 0
 S   7 1.00       0.000000000000
      0.6665000000D+04  0.6935163173D-03
      0.1000000000D+04  0.5341502433D-02
      0.2280000000D+03  0.2713667141D-01
      0.6471000000D+02  0.1019923853D+00
      0.2106000000D+02  0.2755086365D+00
      0.7495000000D+01  0.4510864331D+00
      0.2797000000D+01  0.2875657448D+00
 S   7 1.00       0.000000000000
      0.6665000000D+04  0.7733547404D-05
      0.2280000000D+03  0.2780721367D-03
      0.6471000000D+02 -0.2578756542D-02
      0.2106000000D+02 -0.8950876838D-02
      0.7495000000D+01 -0.1060588547D+00
      0.2797000000D+01 -0.1315176856D+00
      0.5215000000D+00  0.1099486598D+01
 S   1 1.00       0.000000000000
      0.1596000000D+00  0.1000000000D+01
 P   3 1.00       0.000000000000
      0.9439000000D+01  0.5697925159D-01
      0.2002000000D+01  0.3132072115D+00
      0.5456000000D+00  0.7603767417D+00
 P   1 1.00       0.000000000000
      0.1517000000D+00  0.1000000000D+01
 D   1 1.00       0.000000000000
      0.5500000000D+00  0.1000000000D+01
 ****
     37 0
 S   3 1.00       0.000000000000
      0.1301000000D+02  0.3349872639D-01
      0.1962000000D+01  0.2348008012D+00
      0.4446000000D+00  0.8136829579D+00
 S   1 1.00       0.000000000000
      0.1220000000D+00  0.1000000000D+01
 P   1 1.00       0.000000000000
      0.7270000000D+00  0.1000000000D+01
 ****
     38 0
 S   3 1.00       0.000000000000
      0.1301000000D+02  0.3349872639D-01
      0.1962000000D+01  0.2348008012D+00
      0.4446000000D+00  0.8136829579D+00
 S   1 1.00       0.000000000000
      0.1220000000D+00  0.1000000000D+01
 P   1 1.00       0.000000000000
      0.7270000000D+00  0.1000000000D+01
 ****

   316 basis functions,   630 primitive gaussians,   330 cartesian basis functions
    54 alpha electrons       54 beta electrons
       nuclear repulsion energy      1041.7457257775 Hartrees.
 IExCor= 1009 DFT=T Ex=PBE Corr=PBE ExCW=0 ScaHFX=  0.000000
 ScaDFX=  1.000000  1.000000  1.000000  1.000000 ScalE2=  1.000000  1.000000
 IRadAn=      5 IRanWt=     -1 IRanGd=            0 ICorTp=0 IEmpDi=141
 NAtoms=   38 NActive=   38 NUniq=   38 SFac= 1.00D+00 NAtFMM=   60 NAOKFM=F Big=F
 Integral buffers will be    131072 words long.
 Raffenetti 2 integral format.
 Two-electron integral symmetry is turned off.
 R6Disp:  Grimme-D3(BJ) Dispersion energy=       -0.0493941979 Hartrees.
 Nuclear repulsion after empirical dispersion term =     1041.6963315796 Hartrees.
 Leave Link  301 at Fri Jul  3 06:42:49 2020, MaxMem= 16642998272 cpu:         1.9
 (Enter /home/fuchs/agschreiner/public/bin/gaussian09-E.01/g09/l302.exe)
 NPDir=0 NMtPBC=     1 NCelOv=     1 NCel=       1 NClECP=     1 NCelD=      1
         NCelK=      1 NCelE2=     1 NClLst=     1 CellRange=     0.0.
 One-electron integrals computed using PRISM.
 NBasis=   316 RedAO= T EigKep=  1.68D-03  NBF=   316
 NBsUse=   316 1.00D-06 EigRej= -1.00D+00 NBFU=   316
 Precomputing XC quadrature grid using
 IXCGrd= 4 IRadAn=           5 IRanWt=          -1 IRanGd=           0 AccXCQ= 0.00D+00.
 Generated NRdTot=       0 NPtTot=           0 NUsed=           0 NTot=          32
 NSgBfM=   329   329   329   329   329 MxSgAt=    38 MxSgA2=    38.
 Leave Link  302 at Fri Jul  3 06:42:50 2020, MaxMem= 16642998272 cpu:        11.1
 (Enter /home/fuchs/agschreiner/public/bin/gaussian09-E.01/g09/l303.exe)
 DipDrv:  MaxL=1.
 Leave Link  303 at Fri Jul  3 06:42:50 2020, MaxMem= 16642998272 cpu:         1.2
 (Enter /home/fuchs/agschreiner/public/bin/gaussian09-E.01/g09/l401.exe)
 ExpMin= 1.22D-01 ExpMax= 6.67D+03 ExpMxC= 2.28D+02 IAcc=3 IRadAn=         5 AccDes= 0.00D+00
 Harris functional with IExCor= 1009 and IRadAn=       5 diagonalized for initial guess.
 HarFok:  IExCor= 1009 AccDes= 0.00D+00 IRadAn=         5 IDoV= 1 UseB2=F ITyADJ=14
 ICtDFT=  3500011 ScaDFX=  1.000000  1.000000  1.000000  1.000000
 FoFCou: FMM=F IPFlag=           0 FMFlag=      100000 FMFlg1=           0
         NFxFlg=           0 DoJE=T BraDBF=F KetDBF=T FulRan=T
         wScrn=  0.000000 ICntrl=     500 IOpCl=  0 I1Cent=   200000004 NGrid=           0
         NMat0=    1 NMatS0=      1 NMatT0=    0 NMatD0=    1 NMtDS0=    0 NMtDT0=    0
 Symmetry not used in FoFCou.
 Harris En= -547.617991380041    
 JPrj=0 DoOrth=F DoCkMO=F.
 Leave Link  401 at Fri Jul  3 06:42:52 2020, MaxMem= 16642998272 cpu:        39.5
 (Enter /home/fuchs/agschreiner/public/bin/gaussian09-E.01/g09/l502.exe)
 Closed shell SCF:
 Using DIIS extrapolation, IDIIS=  1040.
 Two-electron integral symmetry not used.
 Keep J ints in memory in canonical form, NReq=1272814827.
 IVT=      353906 IEndB=      353906 NGot= 16642998272 MDV= 15388315626
 LenX= 15388315626 LenY= 15388206285
 Requested convergence on RMS density matrix=1.00D-08 within 128 cycles.
 Requested convergence on MAX density matrix=1.00D-06.
 Requested convergence on             energy=1.00D-06.
 No special actions if energy rises.
 FoFCou: FMM=F IPFlag=           0 FMFlag=           0 FMFlg1=           0
         NFxFlg=           0 DoJE=F BraDBF=F KetDBF=F FulRan=T
         wScrn=  0.000000 ICntrl=     600 IOpCl=  0 I1Cent=           0 NGrid=           0
         NMat0=    1 NMatS0=  50086 NMatT0=    0 NMatD0=    1 NMtDS0=    0 NMtDT0=    0
 Symmetry not used in FoFCou.
 Integral accuracy reduced to 1.0D-05 until final iterations.

 Cycle   1  Pass 0  IDiag  1:
 E= -546.866775037898    
 DIIS: error= 3.68D-02 at cycle   1 NSaved=   1.
 NSaved= 1 IEnMin= 1 EnMin= -546.866775037898     IErMin= 1 ErrMin= 3.68D-02
 ErrMax= 3.68D-02  0.00D+00 EMaxC= 1.00D-01 BMatC= 3.55D-01 BMatP= 3.55D-01
 IDIUse=3 WtCom= 6.32D-01 WtEn= 3.68D-01
 Coeff-Com:  0.100D+01
 Coeff-En:   0.100D+01
 Coeff:      0.100D+01
 Gap=     0.181 Goal=   None    Shift=    0.000
 GapD=    0.181 DampG=1.000 DampE=0.500 DampFc=0.5000 IDamp=-1.
 Damping current iteration by 5.00D-01
 RMSDP=6.99D-03 MaxDP=1.62D-01              OVMax= 2.42D-01

 Cycle   2  Pass 0  IDiag  1:
 E= -546.936094422959     Delta-E=       -0.069319385060 Rises=F Damp=T
 DIIS: error= 1.40D-02 at cycle   2 NSaved=   2.
 NSaved= 2 IEnMin= 2 EnMin= -546.936094422959     IErMin= 2 ErrMin= 1.40D-02
 ErrMax= 1.40D-02  0.00D+00 EMaxC= 1.00D-01 BMatC= 6.19D-02 BMatP= 3.55D-01
 IDIUse=3 WtCom= 8.60D-01 WtEn= 1.40D-01
 Coeff-Com:  0.273D+00 0.727D+00
 Coeff-En:   0.428D+00 0.572D+00
 Coeff:      0.295D+00 0.705D+00
 Gap=     0.269 Goal=   None    Shift=    0.000
 RMSDP=2.15D-03 MaxDP=6.45D-02 DE=-6.93D-02 OVMax= 1.80D-01

 Cycle   3  Pass 0  IDiag  1:
 E= -547.265895346113     Delta-E=       -0.329800923154 Rises=F Damp=F
 DIIS: error= 1.11D-02 at cycle   3 NSaved=   3.
 NSaved= 3 IEnMin= 3 EnMin= -547.265895346113     IErMin= 3 ErrMin= 1.11D-02
 ErrMax= 1.11D-02  0.00D+00 EMaxC= 1.00D-01 BMatC= 2.84D-02 BMatP= 6.19D-02
 IDIUse=3 WtCom= 8.89D-01 WtEn= 1.11D-01
 Coeff-Com:  0.156D+00 0.443D+00 0.401D+00
 Coeff-En:   0.000D+00 0.000D+00 0.100D+01
 Coeff:      0.139D+00 0.394D+00 0.467D+00
 Gap=     0.258 Goal=   None    Shift=    0.000
 RMSDP=7.63D-04 MaxDP=2.14D-02 DE=-3.30D-01 OVMax= 3.15D-02

 Cycle   4  Pass 0  IDiag  1:
 E= -547.289275530945     Delta-E=       -0.023380184832 Rises=F Damp=F
 DIIS: error= 4.11D-03 at cycle   4 NSaved=   4.
 NSaved= 4 IEnMin= 4 EnMin= -547.289275530945     IErMin= 4 ErrMin= 4.11D-03
 ErrMax= 4.11D-03  0.00D+00 EMaxC= 1.00D-01 BMatC= 3.51D-03 BMatP= 2.84D-02
 IDIUse=3 WtCom= 9.59D-01 WtEn= 4.11D-02
 Coeff-Com:  0.306D-01 0.944D-01 0.272D+00 0.603D+00
 Coeff-En:   0.000D+00 0.000D+00 0.127D+00 0.873D+00
 Coeff:      0.293D-01 0.905D-01 0.266D+00 0.614D+00
 Gap=     0.260 Goal=   None    Shift=    0.000
 RMSDP=1.73D-04 MaxDP=6.58D-03 DE=-2.34D-02 OVMax= 8.75D-03

 Cycle   5  Pass 0  IDiag  1:
 E= -547.292530559825     Delta-E=       -0.003255028880 Rises=F Damp=F
 DIIS: error= 4.96D-04 at cycle   5 NSaved=   5.
 NSaved= 5 IEnMin= 5 EnMin= -547.292530559825     IErMin= 5 ErrMin= 4.96D-04
 ErrMax= 4.96D-04  0.00D+00 EMaxC= 1.00D-01 BMatC= 5.00D-05 BMatP= 3.51D-03
 IDIUse=3 WtCom= 9.95D-01 WtEn= 4.96D-03
 Coeff-Com:  0.143D-02 0.877D-02 0.594D-01 0.214D+00 0.716D+00
 Coeff-En:   0.000D+00 0.000D+00 0.000D+00 0.000D+00 0.100D+01
 Coeff:      0.142D-02 0.873D-02 0.591D-01 0.213D+00 0.718D+00
 Gap=     0.260 Goal=   None    Shift=    0.000
 RMSDP=2.55D-05 MaxDP=7.69D-04 DE=-3.26D-03 OVMax= 1.08D-03

 Cycle   6  Pass 0  IDiag  1:
 E= -547.292578197187     Delta-E=       -0.000047637362 Rises=F Damp=F
 DIIS: error= 1.12D-04 at cycle   6 NSaved=   6.
 NSaved= 6 IEnMin= 6 EnMin= -547.292578197187     IErMin= 6 ErrMin= 1.12D-04
 ErrMax= 1.12D-04  0.00D+00 EMaxC= 1.00D-01 BMatC= 3.80D-06 BMatP= 5.00D-05
 IDIUse=3 WtCom= 9.99D-01 WtEn= 1.12D-03
 Coeff-Com: -0.103D-03 0.103D-02 0.211D-01 0.887D-01 0.369D+00 0.520D+00
 Coeff-En:   0.000D+00 0.000D+00 0.000D+00 0.000D+00 0.000D+00 0.100D+01
 Coeff:     -0.103D-03 0.102D-02 0.210D-01 0.886D-01 0.369D+00 0.520D+00
 Gap=     0.260 Goal=   None    Shift=    0.000
 RMSDP=6.44D-06 MaxDP=2.27D-04 DE=-4.76D-05 OVMax= 2.82D-04

 Initial convergence to 1.0D-05 achieved.  Increase integral accuracy.
 Cycle   7  Pass 1  IDiag  1:
 E= -547.292601384949     Delta-E=       -0.000023187762 Rises=F Damp=F
 DIIS: error= 2.55D-05 at cycle   1 NSaved=   1.
 NSaved= 1 IEnMin= 1 EnMin= -547.292601384949     IErMin= 1 ErrMin= 2.55D-05
 ErrMax= 2.55D-05  0.00D+00 EMaxC= 1.00D-01 BMatC= 3.06D-07 BMatP= 3.06D-07
 IDIUse=1 WtCom= 1.00D+00 WtEn= 0.00D+00
 Coeff-Com:  0.100D+01
 Coeff:      0.100D+01
 Gap=     0.260 Goal=   None    Shift=    0.000
 RMSDP=6.44D-06 MaxDP=2.27D-04 DE=-2.32D-05 OVMax= 1.57D-04

 Cycle   8  Pass 1  IDiag  1:
 E= -547.292601228615     Delta-E=        0.000000156335 Rises=F Damp=F
 DIIS: error= 3.83D-05 at cycle   2 NSaved=   2.
 NSaved= 2 IEnMin= 1 EnMin= -547.292601384949     IErMin= 1 ErrMin= 2.55D-05
 ErrMax= 3.83D-05  0.00D+00 EMaxC= 1.00D-01 BMatC= 4.91D-07 BMatP= 3.06D-07
 IDIUse=1 WtCom= 1.00D+00 WtEn= 0.00D+00
 Coeff-Com:  0.564D+00 0.436D+00
 Coeff:      0.564D+00 0.436D+00
 Gap=     0.260 Goal=   None    Shift=    0.000
 RMSDP=2.57D-06 MaxDP=8.31D-05 DE= 1.56D-07 OVMax= 9.68D-05

 Cycle   9  Pass 1  IDiag  1:
 E= -547.292601713437     Delta-E=       -0.000000484822 Rises=F Damp=F
 DIIS: error= 7.58D-06 at cycle   3 NSaved=   3.
 NSaved= 3 IEnMin= 3 EnMin= -547.292601713437     IErMin= 3 ErrMin= 7.58D-06
 ErrMax= 7.58D-06  0.00D+00 EMaxC= 1.00D-01 BMatC= 1.26D-08 BMatP= 3.06D-07
 IDIUse=1 WtCom= 1.00D+00 WtEn= 0.00D+00
 Coeff-Com:  0.118D+00 0.163D+00 0.719D+00
 Coeff:      0.118D+00 0.163D+00 0.719D+00
 Gap=     0.260 Goal=   None    Shift=    0.000
 RMSDP=6.92D-07 MaxDP=1.52D-05 DE=-4.85D-07 OVMax= 2.54D-05

 Cycle  10  Pass 1  IDiag  1:
 E= -547.292601718600     Delta-E=       -0.000000005163 Rises=F Damp=F
 DIIS: error= 5.56D-06 at cycle   4 NSaved=   4.
 NSaved= 4 IEnMin= 4 EnMin= -547.292601718600     IErMin= 4 ErrMin= 5.56D-06
 ErrMax= 5.56D-06  0.00D+00 EMaxC= 1.00D-01 BMatC= 7.38D-09 BMatP= 1.26D-08
 IDIUse=1 WtCom= 1.00D+00 WtEn= 0.00D+00
 Coeff-Com:  0.111D-01 0.583D-01 0.483D+00 0.447D+00
 Coeff:      0.111D-01 0.583D-01 0.483D+00 0.447D+00
 Gap=     0.260 Goal=   None    Shift=    0.000
 RMSDP=3.51D-07 MaxDP=7.58D-06 DE=-5.16D-09 OVMax= 1.27D-05

 Cycle  11  Pass 1  IDiag  1:
 E= -547.292601725234     Delta-E=       -0.000000006634 Rises=F Damp=F
 DIIS: error= 1.15D-06 at cycle   5 NSaved=   5.
 NSaved= 5 IEnMin= 5 EnMin= -547.292601725234     IErMin= 5 ErrMin= 1.15D-06
 ErrMax= 1.15D-06  0.00D+00 EMaxC= 1.00D-01 BMatC= 3.34D-10 BMatP= 7.38D-09
 IDIUse=1 WtCom= 1.00D+00 WtEn= 0.00D+00
 Coeff-Com: -0.281D-02 0.196D-01 0.208D+00 0.256D+00 0.520D+00
 Coeff:     -0.281D-02 0.196D-01 0.208D+00 0.256D+00 0.520D+00
 Gap=     0.260 Goal=   None    Shift=    0.000
 RMSDP=7.00D-08 MaxDP=1.94D-06 DE=-6.63D-09 OVMax= 2.66D-06

 Cycle  12  Pass 1  IDiag  1:
 E= -547.292601725593     Delta-E=       -0.000000000359 Rises=F Damp=F
 DIIS: error= 6.45D-08 at cycle   6 NSaved=   6.
 NSaved= 6 IEnMin= 6 EnMin= -547.292601725593     IErMin= 6 ErrMin= 6.45D-08
 ErrMax= 6.45D-08  0.00D+00 EMaxC= 1.00D-01 BMatC= 1.44D-12 BMatP= 3.34D-10
 IDIUse=1 WtCom= 1.00D+00 WtEn= 0.00D+00
 Coeff-Com: -0.108D-02 0.572D-02 0.612D-01 0.782D-01 0.171D+00 0.685D+00
 Coeff:     -0.108D-02 0.572D-02 0.612D-01 0.782D-01 0.171D+00 0.685D+00
 Gap=     0.260 Goal=   None    Shift=    0.000
 RMSDP=7.42D-09 MaxDP=2.20D-07 DE=-3.59D-10 OVMax= 3.21D-07

 SCF Done:  E(RPBE-PBE) =  -547.292601726     A.U. after   12 cycles
            NFock= 12  Conv=0.74D-08     -V/T= 2.0081
 KE= 5.429217487749D+02 PE=-3.349963840005D+03 EE= 1.218053157924D+03
 Leave Link  502 at Fri Jul  3 06:43:44 2020, MaxMem= 16642998272 cpu:       534.3
 (Enter /home/fuchs/agschreiner/public/bin/gaussian09-E.01/g09/l508.exe)
 QCSCF skips out because SCF is already converged.
 Leave Link  508 at Fri Jul  3 06:43:44 2020, MaxMem= 16642998272 cpu:         0.0
 (Enter /home/fuchs/agschreiner/public/bin/gaussian09-E.01/g09/l601.exe)
 Copying SCF densities to generalized density rwf, IOpCl= 0 IROHF=0.

 **********************************************************************

            Population analysis using the SCF density.

 **********************************************************************

 Alpha  occ. eigenvalues --   -9.90075  -9.90060  -9.90059  -9.90056  -9.88538
 Alpha  occ. eigenvalues --   -9.88537  -9.88532  -9.88521  -9.88520  -9.88516
 Alpha  occ. eigenvalues --   -9.88412  -9.88411  -9.88410  -9.88403  -0.79779
 Alpha  occ. eigenvalues --   -0.71723  -0.71723  -0.71720  -0.61512  -0.60585
 Alpha  occ. eigenvalues --   -0.60584  -0.60563  -0.59768  -0.59766  -0.49217
 Alpha  occ. eigenvalues --   -0.49216  -0.49208  -0.45234  -0.39584  -0.39579
 Alpha  occ. eigenvalues --   -0.39578  -0.39555  -0.39538  -0.39538  -0.36941
 Alpha  occ. eigenvalues --   -0.33947  -0.33947  -0.33924  -0.33904  -0.33903
 Alpha  occ. eigenvalues --   -0.32002  -0.32002  -0.31970  -0.31142  -0.31112
 Alpha  occ. eigenvalues --   -0.31112  -0.27842  -0.27836  -0.26585  -0.26580
 Alpha  occ. eigenvalues --   -0.26579  -0.24029  -0.24028  -0.24024
 Alpha virt. eigenvalues --    0.01979   0.05457   0.05457   0.05457   0.06196
 Alpha virt. eigenvalues --    0.06199   0.06199   0.09546   0.09547   0.10030
 Alpha virt. eigenvalues --    0.11125   0.11125   0.11134   0.12172   0.12173
 Alpha virt. eigenvalues --    0.12182   0.13067   0.13069   0.13853   0.13854
 Alpha virt. eigenvalues --    0.13858   0.15074   0.16564   0.16590   0.16590
 Alpha virt. eigenvalues --    0.18736   0.18754   0.18755   0.20785   0.20789
 Alpha virt. eigenvalues --    0.21530   0.21530   0.21559   0.22546   0.22547
 Alpha virt. eigenvalues --    0.22574   0.24815   0.26017   0.26020   0.26059
 Alpha virt. eigenvalues --    0.38372   0.38374   0.38405   0.38555   0.38594
 Alpha virt. eigenvalues --    0.38596   0.39394   0.39396   0.40345   0.46071
 Alpha virt. eigenvalues --    0.46093   0.46095   0.51482   0.51496   0.51496
 Alpha virt. eigenvalues --    0.53197   0.53199   0.53440   0.53457   0.53458
 Alpha virt. eigenvalues --    0.55761   0.57714   0.57735   0.57739   0.59032
 Alpha virt. eigenvalues --    0.59034   0.59035   0.59789   0.59798   0.59799
 Alpha virt. eigenvalues --    0.61072   0.61073   0.61096   0.61516   0.61518
 Alpha virt. eigenvalues --    0.61518   0.62352   0.62354   0.64645   0.64645
 Alpha virt. eigenvalues --    0.64666   0.64674   0.64722   0.64727   0.67966
 Alpha virt. eigenvalues --    0.67967   0.68716   0.69645   0.69647   0.69664
 Alpha virt. eigenvalues --    0.70445   0.70445   0.70461   0.71066   0.72092
 Alpha virt. eigenvalues --    0.72094   0.72097   0.78763   0.78768   0.78846
 Alpha virt. eigenvalues --    0.80546   0.84349   0.84354   0.93796   0.93838
 Alpha virt. eigenvalues --    0.93838   0.99258   0.99703   0.99760   0.99760
 Alpha virt. eigenvalues --    1.08583   1.08620   1.08623   1.15963   1.15965
 Alpha virt. eigenvalues --    1.20177   1.20215   1.20218   1.25666   1.25681
 Alpha virt. eigenvalues --    1.25686   1.25952   1.27331   1.27374   1.27376
 Alpha virt. eigenvalues --    1.28291   1.28294   1.28337   1.33552   1.33556
 Alpha virt. eigenvalues --    1.35241   1.35243   1.35244   1.35770   1.37700
 Alpha virt. eigenvalues --    1.37701   1.37801   1.43321   1.43324   1.43435
 Alpha virt. eigenvalues --    1.46423   1.46470   1.46472   1.49762   1.49765
 Alpha virt. eigenvalues --    1.49805   1.51175   1.51177   1.51195   1.52158
 Alpha virt. eigenvalues --    1.53361   1.53365   1.54451   1.56219   1.56272
 Alpha virt. eigenvalues --    1.56274   1.58851   1.58852   1.58858   1.60631
 Alpha virt. eigenvalues --    1.60632   1.61310   1.61312   1.61355   1.64817
 Alpha virt. eigenvalues --    1.64823   1.65681   1.66997   1.67006   1.67010
 Alpha virt. eigenvalues --    1.68718   1.68720   1.68744   1.72809   1.72898
 Alpha virt. eigenvalues --    1.72904   1.73727   1.73740   1.73744   1.73864
 Alpha virt. eigenvalues --    1.73872   1.76100   1.76463   1.76466   1.76470
 Alpha virt. eigenvalues --    1.76650   1.76660   1.82825   1.86108   1.86146
 Alpha virt. eigenvalues --    1.86149   1.89930   1.89974   1.89979   1.92825
 Alpha virt. eigenvalues --    1.92829   1.92921   1.93342   1.93348   1.93366
 Alpha virt. eigenvalues --    1.93442   1.97771   1.97773   1.97803   2.00756
 Alpha virt. eigenvalues --    2.00758   2.00766   2.04092   2.07209   2.07212
 Alpha virt. eigenvalues --    2.10829   2.10847   2.10848   2.14532   2.14537
 Alpha virt. eigenvalues --    2.14555   2.19158   2.19159   2.19183   2.20814
 Alpha virt. eigenvalues --    2.20815   2.20922   2.27512   2.27514   2.31227
 Alpha virt. eigenvalues --    2.31234   2.31392   2.31432   2.31436   2.32752
 Alpha virt. eigenvalues --    2.32756   2.32762   2.34863   2.37699   2.37700
 Alpha virt. eigenvalues --    2.37841   2.37846   2.37979   2.38983   2.39159
 Alpha virt. eigenvalues --    2.39160   2.39188   2.42839   2.42874   2.42879
 Alpha virt. eigenvalues --    2.43017   2.43026   2.43029   2.50412   2.50425
 Alpha virt. eigenvalues --    2.54071   2.54113   2.54120   2.54376   2.54386
 Alpha virt. eigenvalues --    2.54403   2.54598   2.69685   2.69697   2.73478
 Alpha virt. eigenvalues --    2.73485   2.73565
     Molecular Orbital Coefficients:
                           1         2         3         4         5
                           O         O         O         O         O
     Eigenvalues --    -9.90075  -9.90060  -9.90059  -9.90056  -9.88538
   1 1   C  1S          0.00175   0.00148  -0.00024   0.00153   0.84138
   2        2S         -0.00102  -0.00128   0.00017   0.00008   0.03157
   3        3S          0.01341   0.01534  -0.00207   0.00252  -0.03059
   4        4PX         0.00021  -0.00013   0.00001   0.00006   0.00020
   5        4PY         0.00000  -0.00002  -0.00014  -0.00002   0.00005
   6        4PZ         0.00005  -0.00009   0.00003  -0.00021  -0.00009
   7        5PX         0.00062  -0.00617   0.00083  -0.00102   0.00557
   8        5PY         0.00043   0.00041   0.00147  -0.00004  -0.00093
   9        5PZ         0.00620   0.00292  -0.00045  -0.00128  -0.00801
  10        6D 0       -0.00064   0.00033  -0.00003   0.00001  -0.00035
  11        6D+1       -0.00067  -0.00050   0.00006   0.00023  -0.00067
  12        6D-1       -0.00009  -0.00003  -0.00006  -0.00002  -0.00018
  13        6D+2       -0.00026  -0.00083   0.00012  -0.00032  -0.00092
  14        6D-2       -0.00005  -0.00003   0.00005   0.00002   0.00002
  15 2   H  1S         -0.00083  -0.00103  -0.00029  -0.00012  -0.00081
  16        2S          0.00027   0.00048  -0.00043  -0.00042   0.00039
  17        3PX         0.00010   0.00014   0.00001  -0.00002   0.00046
  18        3PY         0.00008   0.00008  -0.00001   0.00004   0.00189
  19        3PZ        -0.00015  -0.00020  -0.00002   0.00003  -0.00069
  20 3   H  1S         -0.00083  -0.00092   0.00055  -0.00009  -0.00086
  21        2S          0.00028   0.00057   0.00032  -0.00040   0.00012
  22        3PX         0.00010   0.00014  -0.00005  -0.00002   0.00041
  23        3PY        -0.00010  -0.00010   0.00003  -0.00003  -0.00190
  24        3PZ        -0.00014  -0.00018   0.00006   0.00004  -0.00047
  25 4   C  1S          0.99151   0.00973  -0.00499   0.10406  -0.00033
  26        2S          0.03775   0.00026  -0.00013   0.00251  -0.00005
  27        3S         -0.05019  -0.00031   0.00015  -0.00279   0.00077
  28        4PX        -0.00056   0.00004  -0.00002   0.00053  -0.00000
  29        4PY         0.00000   0.00007   0.00033   0.00001  -0.00004
  30        4PZ        -0.00000   0.00033  -0.00007  -0.00002  -0.00013
  31        5PX         0.01160  -0.00047   0.00025  -0.00647  -0.00002
  32        5PY        -0.00001   0.00032   0.00162   0.00005  -0.00168
  33        5PZ         0.00007   0.00161  -0.00031  -0.00018  -0.00606
  34        6D 0       -0.00018  -0.00008   0.00001  -0.00018  -0.00061
  35        6D+1        0.00000  -0.00003   0.00001   0.00001  -0.00029
  36        6D-1        0.00000  -0.00000   0.00008   0.00000   0.00004
  37        6D+2        0.00032  -0.00002  -0.00001   0.00032  -0.00023
  38        6D-2       -0.00000  -0.00001  -0.00003  -0.00000  -0.00008
  39 5   C  1S          0.00272  -0.00003   0.00002  -0.00049  -0.00120
  40        2S          0.00008  -0.00007   0.00004  -0.00090  -0.00012
  41        3S          0.00302   0.00046  -0.00025   0.00610   0.00006
  42        4PX         0.00038   0.00001  -0.00000   0.00010   0.00005
  43        4PY        -0.00000   0.00002   0.00009   0.00000   0.00005
  44        4PZ         0.00000   0.00009  -0.00002  -0.00001   0.00018
  45        5PX        -0.00006  -0.00024   0.00013  -0.00340   0.00000
  46        5PY        -0.00000  -0.00028  -0.00139  -0.00003   0.00004
  47        5PZ         0.00000  -0.00139   0.00028   0.00009   0.00011
  48        6D 0        0.00072  -0.00007  -0.00000   0.00003   0.00034
  49        6D+1       -0.00002   0.00001  -0.00000  -0.00000   0.00008
  50        6D-1        0.00000  -0.00000   0.00009   0.00000  -0.00002
  51        6D+2       -0.00124  -0.00005   0.00000  -0.00003   0.00016
  52        6D-2        0.00000   0.00000   0.00001   0.00000   0.00002
  53 6   H  1S         -0.00049   0.00027  -0.00002  -0.00036  -0.00010
  54        2S         -0.00056   0.00045  -0.00007   0.00039   0.00041
  55        3PX         0.00001   0.00003  -0.00001   0.00003  -0.00014
  56        3PY         0.00001   0.00001   0.00010   0.00000   0.00003
  57        3PZ         0.00017  -0.00004  -0.00000  -0.00001   0.00010
  58 7   H  1S         -0.00049  -0.00014   0.00029  -0.00031   0.00001
  59        2S         -0.00055  -0.00013   0.00037   0.00045  -0.00016
  60        3PX         0.00001  -0.00001   0.00003   0.00004   0.00006
  61        3PY         0.00014   0.00006  -0.00001  -0.00002   0.00003
  62        3PZ        -0.00009   0.00007   0.00005   0.00001   0.00011
  63 8   H  1S         -0.00049  -0.00021  -0.00023  -0.00033   0.00004
  64        2S         -0.00055  -0.00023  -0.00035   0.00042  -0.00031
  65        3PX         0.00001  -0.00002  -0.00003   0.00004   0.00011
  66        3PY        -0.00015  -0.00006  -0.00000   0.00002   0.00003
  67        3PZ        -0.00007   0.00006  -0.00007  -0.00000   0.00011
  68 9   C  1S          0.00175  -0.00040   0.00120   0.00172  -0.19796
  69        2S         -0.00103   0.00049  -0.00119  -0.00011  -0.00771
  70        3S          0.01347  -0.00552   0.01386   0.00470   0.00833
  71        4PX         0.00021   0.00006  -0.00013   0.00004  -0.00006
  72        4PY         0.00004  -0.00007  -0.00008  -0.00018   0.00010
  73        4PZ        -0.00003  -0.00012  -0.00001   0.00013   0.00024
  74        5PX         0.00067   0.00221  -0.00556  -0.00190  -0.00159
  75        5PY         0.00516  -0.00026   0.00271  -0.00073   0.00103
  76        5PZ        -0.00347   0.00187  -0.00116   0.00038  -0.00289
  77        6D 0        0.00019  -0.00011   0.00045   0.00025   0.00020
  78        6D+1        0.00038  -0.00008   0.00027  -0.00010   0.00017
  79        6D-1        0.00063  -0.00005   0.00008   0.00016  -0.00032
  80        6D+2        0.00020   0.00029  -0.00065  -0.00032   0.00025
  81        6D-2       -0.00057   0.00020  -0.00039   0.00013   0.00031
  82 10  H  1S         -0.00083  -0.00004  -0.00105  -0.00022   0.00026
  83        2S          0.00028  -0.00059   0.00038  -0.00031   0.00072
  84        3PX         0.00010  -0.00003   0.00014  -0.00000   0.00002
  85        3PY        -0.00007   0.00002  -0.00011   0.00003   0.00001
  86        3PZ         0.00015  -0.00004   0.00018   0.00003  -0.00036
  87 11  H  1S         -0.00083   0.00075  -0.00072  -0.00026   0.00002
  88        2S          0.00027   0.00011   0.00067  -0.00035  -0.00059
  89        3PX         0.00010  -0.00008   0.00012  -0.00000  -0.00020
  90        3PY        -0.00017   0.00011  -0.00018  -0.00002   0.00037
  91        3PZ         0.00001  -0.00003   0.00003  -0.00004   0.00052
  92 12  C  1S         -0.05922  -0.26946   0.72807   0.62278   0.00030
  93        2S         -0.00298  -0.01056   0.02828   0.02263   0.00017
  94        3S          0.00421   0.01416  -0.03785  -0.02977  -0.00193
  95        4PX        -0.00039  -0.00004   0.00011   0.00008  -0.00005
  96        4PY        -0.00017  -0.00005   0.00060  -0.00011   0.00006
  97        4PZ         0.00011   0.00041  -0.00024   0.00005   0.00012
  98        5PX         0.00017   0.00184  -0.00439   0.00009  -0.00177
  99        5PY         0.00391   0.00448  -0.00848  -0.00145   0.00323
 100        5PZ        -0.00263  -0.00119   0.00644   0.00087   0.00386
 101        6D 0        0.00003  -0.00005  -0.00002  -0.00006  -0.00018
 102        6D+1       -0.00004  -0.00004  -0.00006  -0.00014   0.00033
 103        6D-1       -0.00008   0.00004  -0.00008  -0.00035   0.00006
 104        6D+2       -0.00012  -0.00000  -0.00009  -0.00018   0.00006
 105        6D-2        0.00006  -0.00005   0.00005   0.00022   0.00010
 106 13  C  1S         -0.00055  -0.00091   0.00232   0.00114   0.00100
 107        2S         -0.00046  -0.00021   0.00041  -0.00064   0.00006
 108        3S          0.00268   0.00038  -0.00002   0.00625   0.00034
 109        4PX        -0.00008   0.00004  -0.00012  -0.00007   0.00005
 110        4PY         0.00001   0.00011  -0.00017  -0.00024   0.00005
 111        4PZ        -0.00001   0.00002   0.00016   0.00015  -0.00004
 112        5PX         0.00172   0.00003   0.00000   0.00040   0.00027
 113        5PY         0.00097  -0.00013  -0.00142   0.00222  -0.00050
 114        5PZ        -0.00064  -0.00149   0.00030  -0.00140  -0.00096
 115        6D 0        0.00003  -0.00006   0.00011   0.00006   0.00009
 116        6D+1       -0.00006  -0.00019   0.00030   0.00026  -0.00010
 117        6D-1       -0.00006  -0.00029   0.00080   0.00056  -0.00003
 118        6D+2       -0.00010  -0.00018   0.00045   0.00037  -0.00002
 119        6D-2        0.00009   0.00014  -0.00052  -0.00039  -0.00000
 120 14  H  1S         -0.00024   0.00034  -0.00020  -0.00048   0.00004
 121        2S          0.00009   0.00062  -0.00052   0.00007   0.00026
 122        3PX        -0.00006  -0.00008   0.00002   0.00005  -0.00003
 123        3PY         0.00003  -0.00004   0.00007  -0.00002  -0.00004
 124        3PZ         0.00001  -0.00005   0.00012   0.00008   0.00004
 125 15  H  1S          0.00015   0.00003  -0.00015  -0.00063   0.00001
 126        2S          0.00063   0.00018  -0.00045  -0.00014   0.00000
 127        3PX         0.00004   0.00004  -0.00012  -0.00010   0.00000
 128        3PY        -0.00005   0.00004   0.00005   0.00001  -0.00001
 129        3PZ         0.00004   0.00008   0.00001  -0.00001   0.00006
 130 16  H  1S         -0.00024  -0.00015  -0.00040  -0.00045  -0.00009
 131        2S          0.00009  -0.00006  -0.00080   0.00011  -0.00019
 132        3PX        -0.00006   0.00004   0.00008   0.00004   0.00007
 133        3PY        -0.00000   0.00003  -0.00008  -0.00008   0.00008
 134        3PZ        -0.00003   0.00004  -0.00011  -0.00001  -0.00006
 135 17  C  1S          0.00002  -0.00116   0.00008   0.00251   0.11776
 136        2S          0.00065   0.00122  -0.00013  -0.00088   0.00607
 137        3S         -0.00619  -0.01411   0.00143   0.01374  -0.01153
 138        4PX         0.00003  -0.00009   0.00002  -0.00015   0.00025
 139        4PY         0.00001  -0.00003  -0.00026   0.00000   0.00004
 140        4PZ         0.00015  -0.00002   0.00002   0.00014  -0.00014
 141        5PX        -0.00272  -0.00259   0.00025   0.00267  -0.00380
 142        5PY         0.00013  -0.00035  -0.00555  -0.00038   0.00020
 143        5PZ         0.00186   0.00522  -0.00021  -0.00301   0.00378
 144        6D 0       -0.00029  -0.00034   0.00012   0.00023   0.00020
 145        6D+1        0.00007  -0.00006  -0.00004   0.00038   0.00022
 146        6D-1       -0.00006  -0.00018  -0.00066   0.00005   0.00005
 147        6D+2       -0.00033  -0.00075   0.00013   0.00060  -0.00002
 148        6D-2        0.00001   0.00006   0.00048   0.00004   0.00000
 149 18  H  1S          0.00074   0.00065  -0.00006  -0.00093   0.00023
 150        2S         -0.00017  -0.00079   0.00011  -0.00010  -0.00062
 151        3PX         0.00007   0.00005  -0.00001  -0.00001   0.00040
 152        3PY        -0.00001  -0.00001   0.00001   0.00001   0.00005
 153        3PZ        -0.00016  -0.00021   0.00002   0.00018   0.00024
 154 19  H  1S          0.00010   0.00116  -0.00013  -0.00069   0.00012
 155        2S         -0.00073  -0.00033   0.00004   0.00011  -0.00125
 156        3PX         0.00007   0.00022  -0.00002  -0.00015  -0.00022
 157        3PY        -0.00000  -0.00001   0.00000   0.00000  -0.00004
 158        3PZ        -0.00006  -0.00016   0.00002   0.00004  -0.00018
 159 20  C  1S         -0.06017  -0.45113  -0.66970   0.58173   0.00071
 160        2S         -0.00301  -0.01760  -0.02590   0.02104   0.00031
 161        3S          0.00426   0.02358   0.03462  -0.02764  -0.00368
 162        4PX        -0.00039  -0.00007  -0.00010   0.00008  -0.00010
 163        4PY         0.00019   0.00026   0.00057   0.00015  -0.00003
 164        4PZ         0.00009   0.00043   0.00005   0.00005   0.00011
 165        5PX         0.00017   0.00288   0.00373   0.00034  -0.00375
 166        5PY        -0.00425  -0.00682  -0.00789   0.00105  -0.00272
 167        5PZ        -0.00208  -0.00188  -0.00493   0.00037   0.00302
 168        6D 0        0.00001  -0.00003   0.00005  -0.00013  -0.00024
 169        6D+1       -0.00003  -0.00003   0.00007  -0.00011   0.00033
 170        6D-1        0.00006  -0.00007  -0.00007   0.00029  -0.00010
 171        6D+2       -0.00013   0.00003   0.00011  -0.00022   0.00027
 172        6D-2       -0.00007   0.00006   0.00006  -0.00023   0.00007
 173 21  C  1S         -0.00055  -0.00148  -0.00207   0.00101   0.00247
 174        2S         -0.00046  -0.00030  -0.00031  -0.00066   0.00018
 175        3S          0.00268   0.00032  -0.00044   0.00624   0.00052
 176        4PX        -0.00008   0.00007   0.00010  -0.00006   0.00012
 177        4PY        -0.00002  -0.00016  -0.00017   0.00024  -0.00011
 178        4PZ        -0.00001   0.00000  -0.00015   0.00011  -0.00006
 179        5PX         0.00171   0.00002  -0.00004   0.00039   0.00047
 180        5PY        -0.00105  -0.00042  -0.00125  -0.00247   0.00021
 181        5PZ        -0.00050  -0.00146   0.00035  -0.00107  -0.00085
 182        6D 0        0.00002  -0.00020  -0.00025   0.00017   0.00012
 183        6D+1       -0.00005  -0.00022  -0.00019   0.00020  -0.00011
 184        6D-1        0.00005   0.00041   0.00062  -0.00044   0.00003
 185        6D+2       -0.00011  -0.00036  -0.00051   0.00041  -0.00010
 186        6D-2       -0.00009  -0.00030  -0.00051   0.00039  -0.00007
 187 22  H  1S         -0.00024   0.00038   0.00013  -0.00047   0.00001
 188        2S          0.00009   0.00073   0.00034   0.00009   0.00028
 189        3PX        -0.00006  -0.00008  -0.00001   0.00005   0.00001
 190        3PY        -0.00003   0.00004   0.00004   0.00003   0.00001
 191        3PZ         0.00002  -0.00008  -0.00011   0.00006   0.00002
 192 23  H  1S          0.00015   0.00007   0.00017  -0.00062   0.00004
 193        2S          0.00064   0.00029   0.00040  -0.00012  -0.00003
 194        3PX         0.00004   0.00007   0.00011  -0.00009   0.00001
 195        3PY         0.00006  -0.00001   0.00006  -0.00000   0.00006
 196        3PZ         0.00003   0.00008  -0.00004  -0.00001   0.00007
 197 24  H  1S         -0.00024  -0.00003   0.00045  -0.00043  -0.00010
 198        2S          0.00009   0.00015   0.00078   0.00016  -0.00008
 199        3PX        -0.00006   0.00002  -0.00009   0.00004   0.00010
 200        3PY        -0.00000  -0.00004  -0.00006   0.00007  -0.00009
 201        3PZ        -0.00003   0.00007   0.00011  -0.00001  -0.00006
 202 25  C  1S          0.00002   0.00070  -0.00134   0.00231  -0.04304
 203        2S          0.00066  -0.00055   0.00122  -0.00070  -0.00226
 204        3S         -0.00624   0.00675  -0.01450   0.01158   0.00425
 205        4PX         0.00003   0.00002  -0.00007  -0.00016  -0.00013
 206        4PY         0.00012  -0.00011  -0.00009   0.00012   0.00016
 207        4PZ        -0.00008  -0.00021  -0.00006  -0.00006   0.00017
 208        5PX        -0.00271   0.00125  -0.00260   0.00224   0.00160
 209        5PY         0.00158  -0.00476   0.00305  -0.00172  -0.00127
 210        5PZ        -0.00107  -0.00298  -0.00467   0.00153   0.00043
 211        6D 0        0.00021   0.00029   0.00068  -0.00033  -0.00014
 212        6D+1       -0.00004   0.00033   0.00020  -0.00022  -0.00000
 213        6D-1        0.00039  -0.00052   0.00054  -0.00035   0.00014
 214        6D+2       -0.00004   0.00042  -0.00017   0.00020   0.00004
 215        6D-2        0.00005   0.00030   0.00002   0.00029  -0.00011
 216 26  H  1S          0.00074  -0.00034   0.00070  -0.00083  -0.00011
 217        2S         -0.00017   0.00029  -0.00072  -0.00020   0.00012
 218        3PX         0.00007  -0.00002   0.00005   0.00000  -0.00018
 219        3PY        -0.00013   0.00008  -0.00017   0.00012   0.00002
[...]
  14         O                -9.884031         15.948715
  15         O                -0.797794          1.227381
  16         O                -0.717232          1.345599
  17         O                -0.717225          1.345607
  18         O                -0.717198          1.345217
  19         O                -0.615121          1.280814
  20         O                -0.605847          1.330433
  21         O                -0.605839          1.330437
  22         O                -0.605626          1.330820
  23         O                -0.597680          1.367072
  24         O                -0.597655          1.367076
  25         O                -0.492167          1.306885
  26         O                -0.492163          1.306882
  27         O                -0.492079          1.306990
  28         O                -0.452339          1.039679
  29         O                -0.395841          0.981245
  30         O                -0.395791          0.981271
  31         O                -0.395776          0.981292
  32         O                -0.395550          0.984761
  33         O                -0.395381          0.984314
  34         O                -0.395379          0.984282
  35         O                -0.369409          1.325943
  36         O                -0.339471          1.077825
  37         O                -0.339468          1.077870
  38         O                -0.339243          1.077667
  39         O                -0.339041          1.000519
  40         O                -0.339032          1.000479
  41         O                -0.320024          1.145612
  42         O                -0.320018          1.145619
  43         O                -0.319699          1.147073
  44         O                -0.311418          1.075398
  45         O                -0.311123          1.076070
  46         O                -0.311118          1.076076
  47         O                -0.278416          1.315712
  48         O                -0.278362          1.315831
  49         O                -0.265851          1.301827
  50         O                -0.265797          1.301759
  51         O                -0.265785          1.301762
  52         O                -0.240290          1.415607
  53         O                -0.240276          1.415603
  54         O                -0.240238          1.415454
  55         V                 0.019786          0.799635
  56         V                 0.054566          0.818893
  57         V                 0.054568          0.818745
  58         V                 0.054572          0.818694
  59         V                 0.061960          0.834807
  60         V                 0.061990          0.834560
  61         V                 0.061993          0.834516
  62         V                 0.095461          0.785976
  63         V                 0.095471          0.786024
  64         V                 0.100303          1.074860
  65         V                 0.111245          0.822897
  66         V                 0.111250          0.822866
  67         V                 0.111342          0.821727
  68         V                 0.121717          0.963608
  69         V                 0.121728          0.963590
  70         V                 0.121816          0.964164
  71         V                 0.130672          1.207552
  72         V                 0.130689          1.207338
  73         V                 0.138531          1.088528
  74         V                 0.138544          1.088406
  75         V                 0.138578          1.090854
  76         V                 0.150743          1.037034
  77         V                 0.165644          1.008129
  78         V                 0.165896          1.009737
  79         V                 0.165902          1.009754
  80         V                 0.187355          1.369456
  81         V                 0.187539          1.370977
  82         V                 0.187546          1.370967
  83         V                 0.207847          1.508908
  84         V                 0.207888          1.509167
  85         V                 0.215296          1.622238
  86         V                 0.215302          1.622092
  87         V                 0.215594          1.619087
  88         V                 0.225464          1.224308
  89         V                 0.225471          1.224354
  90         V                 0.225739          1.224659
  91         V                 0.248153          1.946011
  92         V                 0.260174          1.555457
  93         V                 0.260204          1.555649
  94         V                 0.260585          1.562271
  95         V                 0.383717          1.609180
  96         V                 0.383735          1.609163
  97         V                 0.384048          1.609792
  98         V                 0.385553          1.735026
  99         V                 0.385937          1.736276
 100         V                 0.385964          1.736408
 101         V                 0.393937          1.236033
 102         V                 0.393957          1.236043
 103         V                 0.403455          1.523809
 104         V                 0.460710          1.637910
 105         V                 0.460927          1.635543
 106         V                 0.460948          1.635908
 107         V                 0.514816          2.393043
 108         V                 0.514956          2.396430
 109         V                 0.514961          2.396286
 110         V                 0.531970          1.946123
 111         V                 0.531987          1.946351
 112         V                 0.534400          2.024538
 113         V                 0.534574          2.022431
 114         V                 0.534580          2.022403
 115         V                 0.557610          2.982019
 116         V                 0.577135          1.730093
 117         V                 0.577346          1.732077
 118         V                 0.577386          1.732183
 119         V                 0.590322          2.273425
 120         V                 0.590341          2.272822
 121         V                 0.590346          2.272816
 122         V                 0.597892          1.873701
 123         V                 0.597983          1.875523
 124         V                 0.597988          1.875529
 125         V                 0.610722          2.119835
 126         V                 0.610734          2.119686
 127         V                 0.610960          2.119152
 128         V                 0.615163          1.960718
 129         V                 0.615179          1.959199
 130         V                 0.615184          1.959220
 131         V                 0.623517          1.961283
 132         V                 0.623535          1.961299
 133         V                 0.646448          2.031504
 134         V                 0.646451          2.030578
 135         V                 0.646656          2.057582
 136         V                 0.646739          2.341255
 137         V                 0.647218          1.835072
 138         V                 0.647269          1.835490
 139         V                 0.679663          2.015430
 140         V                 0.679667          2.015429
 141         V                 0.687157          2.625754
 142         V                 0.696450          1.970693
 143         V                 0.696469          1.970836
 144         V                 0.696640          1.964981
 145         V                 0.704451          2.081592
 146         V                 0.704454          2.081726
 147         V                 0.704608          2.086888
 148         V                 0.710661          2.165162
 149         V                 0.720920          2.038237
 150         V                 0.720941          2.036810
 151         V                 0.720972          2.036894
 152         V                 0.787630          1.899398
 153         V                 0.787682          1.899364
 154         V                 0.788465          1.900621
 155         V                 0.805459          1.878425
 156         V                 0.843486          1.780738
 157         V                 0.843539          1.780734
 158         V                 0.937959          1.986191
 159         V                 0.938382          1.986501
 160         V                 0.938385          1.986506
 161         V                 0.992578          1.796906
 162         V                 0.997034          2.115398
 163         V                 0.997597          2.117033
 164         V                 0.997600          2.117071
 165         V                 1.085834          2.018870
 166         V                 1.086200          2.019243
 167         V                 1.086226          2.019296
 168         V                 1.159632          2.058582
 169         V                 1.159651          2.058611
 170         V                 1.201769          2.244819
 171         V                 1.202150          2.245163
 172         V                 1.202181          2.245234
 173         V                 1.256657          2.188585
 174         V                 1.256813          2.183511
 175         V                 1.256865          2.183511
 176         V                 1.259519          2.333127
 177         V                 1.273311          2.174120
 178         V                 1.273740          2.174509
 179         V                 1.273760          2.174496
 180         V                 1.282915          2.348409
 181         V                 1.282939          2.348599
 182         V                 1.283369          2.344494
 183         V                 1.335518          2.230059
 184         V                 1.335562          2.230126
 185         V                 1.352408          2.048487
 186         V                 1.352432          2.048517
 187         V                 1.352439          2.048523
 188         V                 1.357698          2.030673
 189         V                 1.377000          2.606404
 190         V                 1.377007          2.606580
 191         V                 1.378013          2.612986
 192         V                 1.433210          2.490582
 193         V                 1.433238          2.490793
 194         V                 1.434346          2.487084
 195         V                 1.464230          2.259196
 196         V                 1.464697          2.259095
 197         V                 1.464722          2.259124
 198         V                 1.497623          2.708942
 199         V                 1.497651          2.708993
 200         V                 1.498055          2.708474
 201         V                 1.511752          2.719706
 202         V                 1.511771          2.719706
 203         V                 1.511947          2.719412
 204         V                 1.521584          2.517580
 205         V                 1.533607          2.633016
 206         V                 1.533652          2.633196
 207         V                 1.544511          2.668769
 208         V                 1.562194          2.698649
 209         V                 1.562720          2.698796
 210         V                 1.562742          2.698878
 211         V                 1.588509          2.560161
 212         V                 1.588518          2.560094
 213         V                 1.588582          2.559862
 214         V                 1.606313          2.695074
 215         V                 1.606324          2.695020
 216         V                 1.613096          2.787481
 217         V                 1.613123          2.787571
 218         V                 1.613555          2.786983
 219         V                 1.648166          2.671169
 220         V                 1.648228          2.671781
 221         V                 1.656809          2.834547
 222         V                 1.669967          2.637537
 223         V                 1.670056          2.641023
 224         V                 1.670097          2.641047
 225         V                 1.687181          2.906003
 226         V                 1.687203          2.905861
 227         V                 1.687443          2.914000
 228         V                 1.728085          2.839791
 229         V                 1.728977          2.832933
 230         V                 1.729042          2.832214
 231         V                 1.737274          2.981885
 232         V                 1.737405          3.000020
 233         V                 1.737438          2.998987
 234         V                 1.738639          2.901818
 235         V                 1.738722          2.901860
 236         V                 1.760995          2.941435
 237         V                 1.764633          2.846370
 238         V                 1.764658          2.846299
 239         V                 1.764696          2.846425
 240         V                 1.766496          2.878224
 241         V                 1.766598          2.878036
 242         V                 1.828246          2.667478
 243         V                 1.861078          2.945469
 244         V                 1.861459          2.944410
 245         V                 1.861487          2.944570
 246         V                 1.899301          3.127417
 247         V                 1.899743          3.128392
 248         V                 1.899793          3.128335
 249         V                 1.928249          2.813347
 250         V                 1.928291          2.813554
 251         V                 1.929215          2.816913
 252         V                 1.933419          2.952280
 253         V                 1.933483          2.952874
 254         V                 1.933661          2.976508
 255         V                 1.934421          3.027234
 256         V                 1.977709          3.038670
 257         V                 1.977725          3.038794
 258         V                 1.978028          3.037690
 259         V                 2.007561          3.008035
 260         V                 2.007581          3.007983
 261         V                 2.007657          3.009290
 262         V                 2.040921          2.964103
 263         V                 2.072094          2.896683
 264         V                 2.072117          2.896728
 265         V                 2.108289          3.129567
 266         V                 2.108473          3.133295
 267         V                 2.108481          3.133327
 268         V                 2.145317          3.548712
 269         V                 2.145370          3.548796
 270         V                 2.145553          3.547970
 271         V                 2.191579          3.294454
 272         V                 2.191586          3.294298
 273         V                 2.191826          3.294033
 274         V                 2.208143          3.269000
 275         V                 2.208155          3.269110
 276         V                 2.209216          3.272829
 277         V                 2.275123          3.399742
 278         V                 2.275145          3.399912
 279         V                 2.312272          3.817303
 280         V                 2.312336          3.817646
 281         V                 2.313919          3.542435
 282         V                 2.314318          3.543815
 283         V                 2.314364          3.543897
 284         V                 2.327523          3.814740
 285         V                 2.327560          3.815233
 286         V                 2.327616          3.816756
 287         V                 2.348634          4.032292
 288         V                 2.376987          4.062664
 289         V                 2.376997          4.062788
 290         V                 2.378409          3.747911
 291         V                 2.378464          3.748000
 292         V                 2.379791          3.752083
 293         V                 2.389832          4.179923
 294         V                 2.391592          3.980552
 295         V                 2.391599          3.980494
 296         V                 2.391885          3.993210
 297         V                 2.428392          3.946087
 298         V                 2.428744          3.956491
 299         V                 2.428785          3.956557
 300         V                 2.430173          4.233110
 301         V                 2.430262          4.224869
 302         V                 2.430292          4.224859
 303         V                 2.504123          3.676918
 304         V                 2.504248          3.676875
 305         V                 2.540709          4.222066
 306         V                 2.541133          4.223933
 307         V                 2.541198          4.223922
 308         V                 2.543762          4.263430
 309         V                 2.543857          4.266278
 310         V                 2.544032          4.245832
 311         V                 2.545979          3.788013
 312         V                 2.696854          4.043049
 313         V                 2.696971          4.042922
 314         V                 2.734784          4.260009
 315         V                 2.734851          4.260119
 316         V                 2.735646          4.260788
 Total kinetic energy from orbitals= 5.429217487749D+02
 No NMR shielding tensors so no spin-rotation constants.
 Leave Link  601 at Fri Jul  3 06:43:45 2020, MaxMem= 16642998272 cpu:        12.4
 (Enter /home/fuchs/agschreiner/public/bin/gaussian09-E.01/g09/l9999.exe)

 Test job not archived.
 1\1\GINC-NODE30-020\SP\RPBEPBE\CC-pVDZ\C14H24\SCHWAN\03-Jul-2020\0\\#p
  cc-pVDZ pbepbe empiricaldispersion=gd3bj scf=(xqc,maxcycle=250) int=(
 grid=ultrafine,acc2E=11) iop(6/7=3) gfinput nosymm\\opt\\0,1\C,0,4.150
 63847,-0.09531773,-1.43868423\H,0,4.53898092,0.75802057,-2.03795224\H,
 0,4.53643867,-1.02368867,-1.9155753\C,0,4.68181213,0.00329229,0.007573
 65\C,0,6.21284696,0.00159734,0.01773588\H,0,6.60568115,0.07187457,1.05
 342412\H,0,6.61717853,0.86049009,-0.55737952\H,0,6.61440469,-0.9288575
 2,-0.43493876\C,0,4.13427335,-1.19591798,0.81113107\H,0,4.51081624,-1.
 14757642,1.85707778\H,0,4.51965414,-2.14440316,0.37528529\C,0,2.591109
 83,-1.21807806,0.81645292\C,0,2.07004447,-2.41482918,1.61713892\H,0,2.
 41435998,-2.37139708,2.67139722\H,0,0.96015405,-2.43868223,1.62409713\
 H,0,2.42639834,-3.37191442,1.18245471\C,0,2.08875478,0.10493695,1.4321
 1834\H,0,2.42559052,0.17688103,2.49018971\H,0,0.97657196,0.10868165,1.
 45048572\C,0,2.59529572,1.3297876,0.6418677\C,0,2.07741419,2.62526965,
 1.27307345\H,0,2.42479926,2.72506934,2.32250388\H,0,0.967583,2.6509454
 7,1.28002128\H,0,2.43315542,3.51404374,0.71144407\C,0,2.10538691,1.205
 16928,-0.81635017\H,0,2.45467022,2.08275002,-1.40454\H,0,0.99350968,1.
 22808723,-0.83895867\C,0,2.60770849,-0.09555825,-1.47737812\C,0,2.1017
 642,-0.19275694,-2.91935696\H,0,0.99211788,-0.19185698,-2.95430958\H,0
 ,2.45507634,-1.12590466,-3.40546619\H,0,2.46032723,0.66386646,-3.52727
 29\C,0,2.10128048,-1.29242841,-0.64494942\H,0,0.98925857,-1.31524886,-
 0.66338373\H,0,2.44762794,-2.24317635,-1.10781811\C,0,4.13833745,1.302
 78968,0.63962103\H,0,4.514945,1.39665936,1.68242139\H,0,4.52646183,2.1
 8163039,0.07824687\\Version=ES64L-G09RevE.01\HF=-547.2926017\RMSD=7.41
 7e-09\Dipole=-0.0010912,-0.0000209,-0.0000028\Quadrupole=-0.0160042,0.
 0076609,0.0083433,0.000571,-0.0001696,0.0005226\PG=C01 [X(C14H24)]\\@


 OPTIMIST - A PESSIMIST WHO LACKS EXPERIENCE
 Job cpu time:       0 days  0 hours 10 minutes  8.6 seconds.
 File lengths (MBytes):  RWF=     72 Int=      0 D2E=      0 Chk=      6 Scr=      1
 Normal termination of Gaussian 09 at Fri Jul  3 06:43:45 2020.
