 Entering Gaussian System, Link 0=/home/fuchs/agschreiner/public/bin/gaussian16-C.01/g16/g16
 Input=cluster.com
 Output=cluster.log
 Initial command:
 /home/fuchs/agschreiner/public/bin/gaussian09-E.01/g09/l1.exe "/scratch/fuchs/giessen/schwan/promotion/dimer_paper/bondshare/AdMe/mono1/Gau-151787.inp" -scrdir="/scratch/fuchs/giessen/schwan/promotion/dimer_paper/bondshare/AdMe/mono1/"
 Entering Link 1 = /home/fuchs/agschreiner/public/bin/gaussian09-E.01/g09/l1.exe PID=    151788.
  
 Copyright (c) 1988,1990,1992,1993,1995,1998,2003,2009,2015,
            Gaussian, Inc.  All Rights Reserved.
  
 This is part of the Gaussian(R) 09 program.  It is based on
 the Gaussian(R) 03 system (copyright 2003, Gaussian, Inc.),
 the Gaussian(R) 98 system (copyright 1998, Gaussian, Inc.),
 the Gaussian(R) 94 system (copyright 1995, Gaussian, Inc.),
 the Gaussian 92(TM) system (copyright 1992, Gaussian, Inc.),
 the Gaussian 90(TM) system (copyright 1990, Gaussian, Inc.),
 the Gaussian 88(TM) system (copyright 1988, Gaussian, Inc.),
 the Gaussian 86(TM) system (copyright 1986, Carnegie Mellon
 University), and the Gaussian 82(TM) system (copyright 1983,
 Carnegie Mellon University). Gaussian is a federally registered
 trademark of Gaussian, Inc.
  
 This software contains proprietary and confidential information,
 including trade secrets, belonging to Gaussian, Inc.
  
 This software is provided under written license and may be
 used, copied, transmitted, or stored only in accord with that
 written license.
  
 The following legend is applicable only to US Government
 contracts under FAR:
  
                    RESTRICTED RIGHTS LEGEND
  
 Use, reproduction and disclosure by the US Government is
 subject to restrictions as set forth in subparagraphs (a)
 and (c) of the Commercial Computer Software - Restricted
 Rights clause in FAR 52.227-19.
  
 Gaussian, Inc.
 340 Quinnipiac St., Bldg. 40, Wallingford CT 06492
  
  
 ---------------------------------------------------------------
 Warning -- This program may not be used in any manner that
 competes with the business of Gaussian, Inc. or will provide
 assistance to any competitor of Gaussian, Inc.  The licensee
 of this program is prohibited from giving any competitor of
 Gaussian, Inc. access to this program.  By using this program,
 the user acknowledges that Gaussian, Inc. is engaged in the
 business of creating and licensing software in the field of
 computational chemistry and represents and warrants to the
 licensee that it is not a competitor of Gaussian, Inc. and that
 it will not use this program in any manner prohibited above.
 ---------------------------------------------------------------
  

 Cite this work as:
 Gaussian 09, Revision E.01,
 M. J. Frisch, G. W. Trucks, H. B. Schlegel, G. E. Scuseria, 
 M. A. Robb, J. R. Cheeseman, G. Scalmani, V. Barone, B. Mennucci, 
 G. A. Petersson, H. Nakatsuji, M. Caricato, X. Li, H. P. Hratchian, 
 A. F. Izmaylov, J. Bloino, G. Zheng, J. L. Sonnenberg, M. Hada, 
 M. Ehara, K. Toyota, R. Fukuda, J. Hasegawa, M. Ishida, T. Nakajima, 
 Y. Honda, O. Kitao, H. Nakai, T. Vreven, J. A. Montgomery, Jr., 
 J. E. Peralta, F. Ogliaro, M. Bearpark, J. J. Heyd, E. Brothers, 
 K. N. Kudin, V. N. Staroverov, T. Keith, R. Kobayashi, J. Normand, 
 K. Raghavachari, A. Rendell, J. C. Burant, S. S. Iyengar, J. Tomasi, 
 M. Cossi, N. Rega, J. M. Millam, M. Klene, J. E. Knox, J. B. Cross, 
 V. Bakken, C. Adamo, J. Jaramillo, R. Gomperts, R. E. Stratmann, 
 O. Yazyev, A. J. Austin, R. Cammi, C. Pomelli, J. W. Ochterski, 
 R. L. Martin, K. Morokuma, V. G. Zakrzewski, G. A. Voth, 
 P. Salvador, J. J. Dannenberg, S. Dapprich, A. D. Daniels, 
 O. Farkas, J. B. Foresman, J. V. Ortiz, J. Cioslowski, 
 and D. J. Fox, Gaussian, Inc., Wallingford CT, 2013.
 
 ******************************************
 Gaussian 09:  ES64L-G09RevE.01 30-Nov-2015
                 4-Jul-2020 
 ******************************************
 %NProcShared=20
 Will use up to   20 processors via shared memory.
 %Mem=124GB
 %Chk=ziel1
 ----------------------------------------------------------------------
 #p cc-pVDZ pbepbe empiricaldispersion=gd3bj scf=(xqc,maxcycle=250) int
 =(grid=ultrafine,acc2E=11) iop(6/7=3) gfinput nosymm
 ----------------------------------------------------------------------
 1/38=1/1;
 2/12=2,15=1,17=6,18=5,40=1/2;
 3/5=16,11=2,16=1,24=10,25=1,30=1,74=1009,75=-5,124=41/1,2,3;
 4//1;
 5/5=2,7=250,8=3,13=1,38=5,87=11/2,8;
 6/7=3,8=2,9=2,10=2,28=1/1;
 99/5=1,9=1/99;
 Leave Link    1 at Sat Jul  4 23:08:13 2020, MaxMem= 16642998272 cpu:        20.1
 (Enter /home/fuchs/agschreiner/public/bin/gaussian09-E.01/g09/l101.exe)
 ---
 opt
 ---
 Symbolic Z-matrix:
 Charge =  0 Multiplicity = 1
 C                    -4.13798   0.56216   1.33574 
 H                    -4.52698  -0.04861   2.1806 
 H                    -4.51341   1.59822   1.48974 
 C                    -4.68191   0.00704   0.00174 
 C                    -6.21292   0.01863   0.00048 
 H                    -6.61477  -0.37904  -0.95465 
 H                    -6.61789  -0.60488   0.82459 
 H                    -6.60481   1.04888   0.13058 
 C                    -4.13342   0.87812  -1.14895 
 H                    -4.51903   0.49819  -2.12109 
 H                    -4.50904   1.91986  -1.04022 
 C                    -2.59023   0.88343  -1.17053 
 C                    -2.06827   1.75213  -2.31845 
 H                    -2.42422   1.37407  -3.29942 
 H                    -0.95837   1.76018  -2.34121 
 H                    -2.41228   2.80219  -2.21383 
 C                    -2.10143  -0.57145  -1.3293 
 H                    -2.44777  -0.9781   -2.30543 
 H                    -0.98942  -0.58931  -1.35288 
 C                    -2.60891  -1.47153  -0.1828 
 C                    -2.10432  -2.90587  -0.36368 
 H                    -2.4582   -3.33645  -1.32351 
 H                    -0.9947   -2.94187  -0.36506 
 H                    -2.46339  -3.56226   0.45616 
 C                    -2.10618  -0.8876    1.15422 
 H                    -2.45602  -1.52548   1.99614 
 H                    -0.99431  -0.91249   1.17578 
 C                    -2.59495   0.56121   1.363 
 C                    -2.07675   1.11578   2.69299 
 H                    -2.42274   2.15815   2.85325 
 H                    -2.43353   0.50413   3.5477 
 H                    -0.96692   1.1196    2.7193 
 C                    -2.0877    1.4209    0.18616 
 H                    -0.97552   1.43811   0.19106 
 H                    -2.42373   2.47324   0.31948 
 C                    -4.15185  -1.43145  -0.18046 
 H                    -4.53786  -1.8533   -1.13502 
 H                    -4.5408   -2.07893   0.63661 
 
 NAtoms=     38 NQM=       38 NQMF=       0 NMMI=      0 NMMIF=      0
                NMic=       0 NMicF=      0.
                    Isotopes and Nuclear Properties:
 (Nuclear quadrupole moments (NQMom) in fm**2, nuclear magnetic moments (NMagM)
  in nuclear magnetons)

  Atom         1           2           3           4           5           6           7           8           9          10
 IAtWgt=          12           1           1          12          12           1           1           1          12           1
 AtmWgt=  12.0000000   1.0078250   1.0078250  12.0000000  12.0000000   1.0078250   1.0078250   1.0078250  12.0000000   1.0078250
 NucSpn=           0           1           1           0           0           1           1           1           0           1
 AtZEff=   0.0000000   0.0000000   0.0000000   0.0000000   0.0000000   0.0000000   0.0000000   0.0000000   0.0000000   0.0000000
 NQMom=    0.0000000   0.0000000   0.0000000   0.0000000   0.0000000   0.0000000   0.0000000   0.0000000   0.0000000   0.0000000
 NMagM=    0.0000000   2.7928460   2.7928460   0.0000000   0.0000000   2.7928460   2.7928460   2.7928460   0.0000000   2.7928460
 AtZNuc=   6.0000000   1.0000000   1.0000000   6.0000000   6.0000000   1.0000000   1.0000000   1.0000000   6.0000000   1.0000000

  Atom        11          12          13          14          15          16          17          18          19          20
 IAtWgt=           1          12          12           1           1           1          12           1           1          12
 AtmWgt=   1.0078250  12.0000000  12.0000000   1.0078250   1.0078250   1.0078250  12.0000000   1.0078250   1.0078250  12.0000000
 NucSpn=           1           0           0           1           1           1           0           1           1           0
 AtZEff=   0.0000000   0.0000000   0.0000000   0.0000000   0.0000000   0.0000000   0.0000000   0.0000000   0.0000000   0.0000000
 NQMom=    0.0000000   0.0000000   0.0000000   0.0000000   0.0000000   0.0000000   0.0000000   0.0000000   0.0000000   0.0000000
 NMagM=    2.7928460   0.0000000   0.0000000   2.7928460   2.7928460   2.7928460   0.0000000   2.7928460   2.7928460   0.0000000
 AtZNuc=   1.0000000   6.0000000   6.0000000   1.0000000   1.0000000   1.0000000   6.0000000   1.0000000   1.0000000   6.0000000

  Atom        21          22          23          24          25          26          27          28          29          30
 IAtWgt=          12           1           1           1          12           1           1          12          12           1
 AtmWgt=  12.0000000   1.0078250   1.0078250   1.0078250  12.0000000   1.0078250   1.0078250  12.0000000  12.0000000   1.0078250
 NucSpn=           0           1           1           1           0           1           1           0           0           1
 AtZEff=   0.0000000   0.0000000   0.0000000   0.0000000   0.0000000   0.0000000   0.0000000   0.0000000   0.0000000   0.0000000
 NQMom=    0.0000000   0.0000000   0.0000000   0.0000000   0.0000000   0.0000000   0.0000000   0.0000000   0.0000000   0.0000000
 NMagM=    0.0000000   2.7928460   2.7928460   2.7928460   0.0000000   2.7928460   2.7928460   0.0000000   0.0000000   2.7928460
 AtZNuc=   6.0000000   1.0000000   1.0000000   1.0000000   6.0000000   1.0000000   1.0000000   6.0000000   6.0000000   1.0000000

  Atom        31          32          33          34          35          36          37          38
 IAtWgt=           1           1          12           1           1          12           1           1
 AtmWgt=   1.0078250   1.0078250  12.0000000   1.0078250   1.0078250  12.0000000   1.0078250   1.0078250
 NucSpn=           1           1           0           1           1           0           1           1
 AtZEff=   0.0000000   0.0000000   0.0000000   0.0000000   0.0000000   0.0000000   0.0000000   0.0000000
 NQMom=    0.0000000   0.0000000   0.0000000   0.0000000   0.0000000   0.0000000   0.0000000   0.0000000
 NMagM=    2.7928460   2.7928460   0.0000000   2.7928460   2.7928460   0.0000000   2.7928460   2.7928460
 AtZNuc=   1.0000000   1.0000000   6.0000000   1.0000000   1.0000000   6.0000000   1.0000000   1.0000000
 Leave Link  101 at Sat Jul  4 23:08:14 2020, MaxMem= 16642998272 cpu:         6.3
 (Enter /home/fuchs/agschreiner/public/bin/gaussian09-E.01/g09/l202.exe)
                          Input orientation:                          
 ---------------------------------------------------------------------
 Center     Atomic      Atomic             Coordinates (Angstroms)
 Number     Number       Type             X           Y           Z
 ---------------------------------------------------------------------
      1          6           0       -4.137978    0.562156    1.335735
      2          1           0       -4.526977   -0.048615    2.180602
      3          1           0       -4.513411    1.598220    1.489744
      4          6           0       -4.681913    0.007044    0.001737
      5          6           0       -6.212918    0.018633    0.000478
      6          1           0       -6.614773   -0.379040   -0.954655
      7          1           0       -6.617889   -0.604879    0.824594
      8          1           0       -6.604807    1.048878    0.130583
      9          6           0       -4.133423    0.878120   -1.148948
     10          1           0       -4.519027    0.498190   -2.121092
     11          1           0       -4.509038    1.919865   -1.040224
     12          6           0       -2.590230    0.883430   -1.170525
     13          6           0       -2.068273    1.752133   -2.318450
     14          1           0       -2.424223    1.374066   -3.299421
     15          1           0       -0.958371    1.760178   -2.341210
     16          1           0       -2.412281    2.802192   -2.213832
     17          6           0       -2.101430   -0.571455   -1.329298
     18          1           0       -2.447772   -0.978098   -2.305429
     19          1           0       -0.989415   -0.589312   -1.352879
     20          6           0       -2.608912   -1.471534   -0.182800
     21          6           0       -2.104317   -2.905868   -0.363683
     22          1           0       -2.458201   -3.336455   -1.323511
     23          1           0       -0.994696   -2.941874   -0.365065
     24          1           0       -2.463387   -3.562259    0.456157
     25          6           0       -2.106182   -0.887597    1.154218
     26          1           0       -2.456019   -1.525483    1.996139
     27          1           0       -0.994310   -0.912492    1.175778
     28          6           0       -2.594955    0.561207    1.362997
     29          6           0       -2.076752    1.115775    2.692993
     30          1           0       -2.422745    2.158148    2.853245
     31          1           0       -2.433532    0.504133    3.547697
     32          1           0       -0.966919    1.119598    2.719299
     33          6           0       -2.087697    1.420898    0.186158
     34          1           0       -0.975517    1.438110    0.191056
     35          1           0       -2.423727    2.473244    0.319484
     36          6           0       -4.151848   -1.431446   -0.180457
     37          1           0       -4.537860   -1.853304   -1.135015
     38          1           0       -4.540798   -2.078930    0.636608
 ---------------------------------------------------------------------
                    Distance matrix (angstroms):
                    1          2          3          4          5
     1  C    0.000000
     2  H    1.112727   0.000000
     3  H    1.112698   1.785926   0.000000
     4  C    1.543880   2.185075   2.185041   0.000000
     5  C    2.526600   2.756784   2.757052   1.531050   0.000000
     6  H    3.502321   3.781257   3.781583   2.190821   1.109914
     7  H    2.788045   2.553448   3.118477   2.190787   1.109926
     8  H    2.788286   3.118404   2.554023   2.190786   1.109915
     9  C    2.504696   3.478451   2.761455   1.543920   2.526697
    10  H    3.478354   4.336315   3.774684   2.184985   2.756864
    11  H    2.761565   3.774778   2.550337   2.185052   2.756983
    12  C    2.963120   3.981174   3.359552   2.552918   3.904228
    13  C    4.364951   5.434095   4.528216   3.906369   5.055743
    14  H    5.008076   6.039557   5.229824   4.226530   5.203916
    15  H    5.006504   6.037670   5.228838   4.735783   6.010553
    16  H    4.538195   5.648901   4.425017   4.227627   5.205402
    17  C    3.540480   4.298375   4.297923   2.960608   4.361288
    18  H    4.299681   5.031054   5.030668   3.359301   4.526257
    19  H    4.297438   5.029134   5.028355   3.978085   5.430115
    20  C    2.963088   3.359962   3.980944   2.552955   3.904235
    21  C    4.364744   4.528417   5.433759   3.906736   5.056275
    22  H    5.009232   5.231494   6.040639   4.228493   5.206482
    23  H    5.005114   5.227655   6.036069   4.735633   6.010662
    24  H    4.537479   4.424682   5.648137   4.227088   5.204749
    25  C    2.502585   2.760001   3.476582   2.960234   4.360923
    26  H    2.761042   2.550301   3.774496   3.358702   4.525621
    27  H    3.476036   3.773022   4.334320   3.977730   5.429751
    28  C    1.543264   2.184736   2.184476   2.552551   3.903909
    29  C    2.529288   2.760789   2.760049   3.906278   5.055811
    30  H    2.791425   3.122506   2.558034   4.226368   5.203962
    31  H    2.793077   2.560663   3.123795   4.228020   5.205981
    32  H    3.504369   3.785357   3.783978   4.735409   6.010375
    33  C    2.502522   3.476688   2.759505   2.960228   4.360994
    34  H    3.475449   4.333764   3.772124   3.977582   5.429697
    35  H    2.761102   3.774546   2.549894   3.358945   4.526020
    36  C    2.504692   2.761800   3.478387   1.543832   2.526554
    37  H    3.478356   3.774962   4.336241   2.184914   2.756685
    38  H    2.761590   2.550743   3.774921   2.185009   2.756885
                    6          7          8          9         10
     6  H    0.000000
     7  H    1.793527   0.000000
     8  H    1.793542   1.793526   0.000000
     9  C    2.788423   3.502389   2.788208   0.000000
    10  H    2.553871   3.781408   3.118297   1.112700   0.000000
    11  H    3.118719   3.781419   2.553754   1.112718   1.785927
    12  C    4.223433   4.734723   4.223398   1.543353   2.184548
    13  C    5.203124   6.011093   5.203122   2.529126   2.759986
    14  H    5.111949   6.205688   5.417376   2.791391   2.558090
    15  H    6.204327   6.902605   6.204672   3.504350   3.784091
    16  H    5.419106   6.207037   5.113479   2.792554   3.123365
    17  C    4.532951   5.003875   5.003712   2.502555   2.759683
    18  H    4.421240   5.227448   5.227210   2.761233   2.550196
    19  H    5.643355   6.035010   6.034646   3.475590   3.772396
    20  C    4.223296   4.223486   4.734751   2.962844   3.359365
    21  C    5.203684   5.203737   6.011550   4.364914   4.528457
    22  H    5.114631   5.420227   6.208050   4.538665   4.425793
    23  H    6.204918   6.204605   6.902544   5.005839   5.228631
    24  H    5.418236   5.112898   6.206444   5.008227   5.230212
    25  C    5.003336   4.532558   5.003539   3.540062   4.297661
    26  H    5.226543   4.420542   5.226861   4.299134   5.030193
    27  H    6.034313   5.642925   6.034658   4.297054   5.028221
    28  C    4.734397   4.222989   4.223220   2.962631   3.980566
    29  C    6.011110   5.203219   5.203240   4.364274   5.433373
    30  H    6.205685   5.417470   5.112046   4.536788   5.647468
    31  H    6.207572   5.114103   5.419682   5.008789   6.040240
    32  H    6.902326   6.204610   6.204211   5.004836   6.035976
    33  C    5.003564   5.003400   4.532744   2.502421   3.476516
    34  H    6.034559   6.034197   5.643055   3.475855   4.334276
    35  H    5.227220   5.226947   4.421079   2.761118   3.774591
    36  C    2.788000   2.788315   3.502251   2.504478   2.761228
    37  H    2.553342   3.118518   3.781094   2.761239   2.549946
    38  H    3.118192   2.553913   3.781452   3.478263   3.774511
                   11         12         13         14         15
    11  H    0.000000
    12  C    2.184720   0.000000
    13  C    2.760313   1.531279   0.000000
    14  H    3.122230   2.191000   1.109927   0.000000
    15  H    3.784877   2.191381   1.110164   1.793313   0.000000
    16  H    2.559735   2.191301   1.109915   1.793931   1.793285
    17  C    3.476609   1.542992   2.525585   2.787585   2.786945
    18  H    3.774618   2.184854   2.756510   2.553674   3.117331
    19  H    4.333759   2.182849   2.752930   3.114892   2.549092
    20  C    3.980859   2.553783   3.904525   4.224320   4.222201
    21  C    5.433976   3.904599   5.051672   5.199879   5.195748
    22  H    5.649343   4.224721   5.199584   5.108266   5.409332
    23  H    6.036799   4.222256   5.196343   5.411223   5.100566
    24  H    6.039663   4.735645   6.008104   6.202677   6.198280
    25  C    4.297806   2.962309   4.362228   5.005115   4.532792
    26  H    5.030388   3.981034   5.432199   6.037495   5.643679
    27  H    5.028541   3.358189   4.523632   5.224979   4.417427
    28  C    3.359336   2.553935   3.904965   4.735824   4.223397
    29  C    4.527636   3.904410   5.051691   6.008034   5.197040
    30  H    4.423630   4.224179   5.199705   6.202426   5.411574
    31  H    5.230778   4.736036   6.008544   6.902166   6.199433
    32  H    5.226953   4.221569   5.195382   6.197861   5.100898
    33  C    2.759687   1.543373   2.526491   3.502100   2.788920
    34  H    3.772785   2.183774   2.755058   3.779719   2.552722
    35  H    2.550207   2.185259   2.757725   3.782151   3.120099
    36  C    3.478228   2.962691   4.364341   4.536907   5.005359
    37  H    3.774470   3.359202   4.527533   4.423577   5.227323
    38  H    4.336259   3.980707   5.433488   5.647602   6.036550
                   16         17         18         19         20
    16  H    0.000000
    17  C    3.501502   0.000000
    18  H    3.781565   1.112719   0.000000
    19  H    3.777312   1.112409   1.784744   0.000000
    20  C    4.735872   1.543417   2.185177   2.184072   0.000000
    21  C    6.008315   2.526244   2.757651   2.754623   1.531225
    22  H    6.203045   2.787929   2.554627   3.115283   2.191316
    23  H    6.198531   2.788099   3.119754   2.551540   2.191076
    24  H    6.902006   3.501967   3.782128   3.779367   2.191021
    25  C    5.005198   2.503561   3.477648   2.760739   1.543158
    26  H    6.037759   3.477704   4.336264   3.774024   2.184962
    27  H    5.224842   2.759968   3.773017   2.549230   2.182934
    28  C    4.224818   2.962252   3.981014   3.358189   2.553766
    29  C    5.199376   4.361900   5.431960   4.523130   3.904811
    30  H    5.107854   5.004761   6.037266   5.224409   4.735696
    31  H    6.202962   5.005223   6.037905   5.224628   4.225000
    32  H    5.408879   4.531877   5.642796   4.416278   4.222829
    33  C    2.788060   2.503251   3.477476   2.759675   2.962087
    34  H    3.115846   2.759983   3.773332   2.548405   3.357645
    35  H    2.554609   3.477434   4.336186   3.772705   3.980937
    36  C    5.008433   2.502725   2.761323   3.476312   1.543458
    37  H    5.230256   2.759905   2.550357   3.773142   2.184789
    38  H    6.039946   3.476749   3.774675   4.334668   2.184616
                   21         22         23         24         25
    21  C    0.000000
    22  H    1.109914   0.000000
    23  H    1.110206   1.793365   0.000000
    24  H    1.109917   1.793943   1.793414   0.000000
    25  C    2.525360   3.501423   2.786337   2.787239   0.000000
    26  H    2.756432   3.781494   3.117196   2.553440   1.112706
    27  H    2.752381   3.776906   2.548055   3.114050   1.112360
    28  C    3.904197   4.735799   4.221209   4.224055   1.543218
    29  C    5.051499   6.008341   5.194909   5.199705   2.526301
    30  H    6.007851   6.901971   6.197343   6.202478   3.501924
    31  H    5.199556   6.203176   5.408782   5.108234   2.787977
    32  H    5.196425   6.198761   5.099964   5.411194   2.788590
    33  C    4.361595   5.004876   4.531256   5.004588   2.503325
    34  H    4.522397   5.223862   4.415190   5.223766   2.759529
    35  H    5.431721   6.037651   5.642184   6.037181   3.477481
    36  C    2.529797   2.793577   3.504722   2.792229   2.502374
    37  H    2.761336   2.561298   3.785739   3.123426   3.476527
    38  H    2.760588   3.124203   3.784555   2.558997   2.759448
                   26         27         28         29         30
    26  H    0.000000
    27  H    1.784753   0.000000
    28  C    2.185050   2.183782   0.000000
    29  C    2.757842   2.754541   1.531329   0.000000
    30  H    3.782178   3.779306   2.191054   1.109924   0.000000
    31  H    2.554835   3.115155   2.191399   1.109917   1.793918
    32  H    3.120390   2.551980   2.191313   1.110151   1.793308
    33  C    3.477477   2.760354   1.543156   2.525360   2.787319
    34  H    3.772677   2.548600   2.182884   2.752509   3.114510
    35  H    4.336131   3.773551   2.184977   2.756204   2.553279
    36  C    2.760841   3.475447   2.962572   4.364753   5.007827
    37  H    3.774341   4.333779   3.980554   5.433796   6.039179
    38  H    2.549692   3.772116   3.359207   4.528398   5.229958
                   31         32         33         34         35
    31  H    0.000000
    32  H    1.793319   0.000000
    33  C    3.501429   2.786346   0.000000
    34  H    3.776925   2.548242   1.112324   0.000000
    35  H    3.781383   3.116690   1.112710   1.784743   0.000000
    36  C    4.538525   5.006014   3.539914   4.296679   4.299180
    37  H    5.649204   6.037011   4.297581   5.028137   5.030323
    38  H    4.425746   5.228843   4.297605   5.027855   5.030393
                   36         37         38
    36  C    0.000000
    37  H    1.112723   0.000000
    38  H    1.112706   1.785936   0.000000
 Symmetry turned off by external request.
 Stoichiometry    C14H24
 Framework group  C1[X(C14H24)]
 Deg. of freedom   108
 Full point group                 C1      NOp   1
 Rotational constants (GHZ):      0.7259165      0.7255896      0.7255440
 Leave Link  202 at Sat Jul  4 23:08:15 2020, MaxMem= 16642998272 cpu:         2.4
 (Enter /home/fuchs/agschreiner/public/bin/gaussian09-E.01/g09/l301.exe)
 Standard basis: CC-pVDZ (5D, 7F)
 Ernie: Thresh=  0.10000D-02 Tol=  0.10000D-05 Strict=F.
 Ernie:  28 primitive shells out of 428 were deleted.
 AO basis set in the form of general basis input (Overlap normalization):
      1 0
 S   7 1.00       0.000000000000
      0.6665000000D+04  0.6935163173D-03
      0.1000000000D+04  0.5341502433D-02
      0.2280000000D+03  0.2713667141D-01
      0.6471000000D+02  0.1019923853D+00
      0.2106000000D+02  0.2755086365D+00
      0.7495000000D+01  0.4510864331D+00
      0.2797000000D+01  0.2875657448D+00
 S   7 1.00       0.000000000000
      0.6665000000D+04  0.7733547404D-05
      0.2280000000D+03  0.2780721367D-03
      0.6471000000D+02 -0.2578756542D-02
      0.2106000000D+02 -0.8950876838D-02
      0.7495000000D+01 -0.1060588547D+00
      0.2797000000D+01 -0.1315176856D+00
      0.5215000000D+00  0.1099486598D+01
 S   1 1.00       0.000000000000
      0.1596000000D+00  0.1000000000D+01
 P   3 1.00       0.000000000000
      0.9439000000D+01  0.5697925159D-01
      0.2002000000D+01  0.3132072115D+00
      0.5456000000D+00  0.7603767417D+00
 P   1 1.00       0.000000000000
      0.1517000000D+00  0.1000000000D+01
 D   1 1.00       0.000000000000
      0.5500000000D+00  0.1000000000D+01
 ****
      2 0
 S   3 1.00       0.000000000000
      0.1301000000D+02  0.3349872639D-01
      0.1962000000D+01  0.2348008012D+00
      0.4446000000D+00  0.8136829579D+00
 S   1 1.00       0.000000000000
      0.1220000000D+00  0.1000000000D+01
 P   1 1.00       0.000000000000
      0.7270000000D+00  0.1000000000D+01
 ****
      3 0
 S   3 1.00       0.000000000000
      0.1301000000D+02  0.3349872639D-01
      0.1962000000D+01  0.2348008012D+00
      0.4446000000D+00  0.8136829579D+00
 S   1 1.00       0.000000000000
      0.1220000000D+00  0.1000000000D+01
 P   1 1.00       0.000000000000
      0.7270000000D+00  0.1000000000D+01
 ****
      4 0
 S   7 1.00       0.000000000000
      0.6665000000D+04  0.6935163173D-03
      0.1000000000D+04  0.5341502433D-02
      0.2280000000D+03  0.2713667141D-01
      0.6471000000D+02  0.1019923853D+00
      0.2106000000D+02  0.2755086365D+00
      0.7495000000D+01  0.4510864331D+00
      0.2797000000D+01  0.2875657448D+00
 S   7 1.00       0.000000000000
      0.6665000000D+04  0.7733547404D-05
      0.2280000000D+03  0.2780721367D-03
      0.6471000000D+02 -0.2578756542D-02
      0.2106000000D+02 -0.8950876838D-02
      0.7495000000D+01 -0.1060588547D+00
      0.2797000000D+01 -0.1315176856D+00
      0.5215000000D+00  0.1099486598D+01
 S   1 1.00       0.000000000000
      0.1596000000D+00  0.1000000000D+01
 P   3 1.00       0.000000000000
      0.9439000000D+01  0.5697925159D-01
      0.2002000000D+01  0.3132072115D+00
      0.5456000000D+00  0.7603767417D+00
 P   1 1.00       0.000000000000
      0.1517000000D+00  0.1000000000D+01
 D   1 1.00       0.000000000000
      0.5500000000D+00  0.1000000000D+01
 ****
      5 0
 S   7 1.00       0.000000000000
      0.6665000000D+04  0.6935163173D-03
      0.1000000000D+04  0.5341502433D-02
      0.2280000000D+03  0.2713667141D-01
      0.6471000000D+02  0.1019923853D+00
      0.2106000000D+02  0.2755086365D+00
      0.7495000000D+01  0.4510864331D+00
      0.2797000000D+01  0.2875657448D+00
 S   7 1.00       0.000000000000
      0.6665000000D+04  0.7733547404D-05
      0.2280000000D+03  0.2780721367D-03
      0.6471000000D+02 -0.2578756542D-02
      0.2106000000D+02 -0.8950876838D-02
      0.7495000000D+01 -0.1060588547D+00
      0.2797000000D+01 -0.1315176856D+00
      0.5215000000D+00  0.1099486598D+01
 S   1 1.00       0.000000000000
      0.1596000000D+00  0.1000000000D+01
 P   3 1.00       0.000000000000
      0.9439000000D+01  0.5697925159D-01
      0.2002000000D+01  0.3132072115D+00
      0.5456000000D+00  0.7603767417D+00
 P   1 1.00       0.000000000000
      0.1517000000D+00  0.1000000000D+01
 D   1 1.00       0.000000000000
      0.5500000000D+00  0.1000000000D+01
 ****
      6 0
 S   3 1.00       0.000000000000
      0.1301000000D+02  0.3349872639D-01
      0.1962000000D+01  0.2348008012D+00
      0.4446000000D+00  0.8136829579D+00
 S   1 1.00       0.000000000000
      0.1220000000D+00  0.1000000000D+01
 P   1 1.00       0.000000000000
      0.7270000000D+00  0.1000000000D+01
 ****
      7 0
 S   3 1.00       0.000000000000
      0.1301000000D+02  0.3349872639D-01
      0.1962000000D+01  0.2348008012D+00
      0.4446000000D+00  0.8136829579D+00
 S   1 1.00       0.000000000000
      0.1220000000D+00  0.1000000000D+01
 P   1 1.00       0.000000000000
      0.7270000000D+00  0.1000000000D+01
 ****
      8 0
 S   3 1.00       0.000000000000
      0.1301000000D+02  0.3349872639D-01
      0.1962000000D+01  0.2348008012D+00
      0.4446000000D+00  0.8136829579D+00
 S   1 1.00       0.000000000000
      0.1220000000D+00  0.1000000000D+01
 P   1 1.00       0.000000000000
      0.7270000000D+00  0.1000000000D+01
 ****
      9 0
 S   7 1.00       0.000000000000
      0.6665000000D+04  0.6935163173D-03
      0.1000000000D+04  0.5341502433D-02
      0.2280000000D+03  0.2713667141D-01
      0.6471000000D+02  0.1019923853D+00
      0.2106000000D+02  0.2755086365D+00
      0.7495000000D+01  0.4510864331D+00
      0.2797000000D+01  0.2875657448D+00
 S   7 1.00       0.000000000000
      0.6665000000D+04  0.7733547404D-05
      0.2280000000D+03  0.2780721367D-03
      0.6471000000D+02 -0.2578756542D-02
      0.2106000000D+02 -0.8950876838D-02
      0.7495000000D+01 -0.1060588547D+00
      0.2797000000D+01 -0.1315176856D+00
      0.5215000000D+00  0.1099486598D+01
 S   1 1.00       0.000000000000
      0.1596000000D+00  0.1000000000D+01
 P   3 1.00       0.000000000000
      0.9439000000D+01  0.5697925159D-01
      0.2002000000D+01  0.3132072115D+00
      0.5456000000D+00  0.7603767417D+00
 P   1 1.00       0.000000000000
      0.1517000000D+00  0.1000000000D+01
 D   1 1.00       0.000000000000
      0.5500000000D+00  0.1000000000D+01
 ****
     10 0
 S   3 1.00       0.000000000000
      0.1301000000D+02  0.3349872639D-01
      0.1962000000D+01  0.2348008012D+00
      0.4446000000D+00  0.8136829579D+00
 S   1 1.00       0.000000000000
      0.1220000000D+00  0.1000000000D+01
 P   1 1.00       0.000000000000
      0.7270000000D+00  0.1000000000D+01
 ****
     11 0
 S   3 1.00       0.000000000000
      0.1301000000D+02  0.3349872639D-01
      0.1962000000D+01  0.2348008012D+00
      0.4446000000D+00  0.8136829579D+00
 S   1 1.00       0.000000000000
      0.1220000000D+00  0.1000000000D+01
 P   1 1.00       0.000000000000
      0.7270000000D+00  0.1000000000D+01
 ****
     12 0
 S   7 1.00       0.000000000000
      0.6665000000D+04  0.6935163173D-03
      0.1000000000D+04  0.5341502433D-02
      0.2280000000D+03  0.2713667141D-01
      0.6471000000D+02  0.1019923853D+00
      0.2106000000D+02  0.2755086365D+00
      0.7495000000D+01  0.4510864331D+00
      0.2797000000D+01  0.2875657448D+00
 S   7 1.00       0.000000000000
      0.6665000000D+04  0.7733547404D-05
      0.2280000000D+03  0.2780721367D-03
      0.6471000000D+02 -0.2578756542D-02
      0.2106000000D+02 -0.8950876838D-02
      0.7495000000D+01 -0.1060588547D+00
      0.2797000000D+01 -0.1315176856D+00
      0.5215000000D+00  0.1099486598D+01
 S   1 1.00       0.000000000000
      0.1596000000D+00  0.1000000000D+01
 P   3 1.00       0.000000000000
      0.9439000000D+01  0.5697925159D-01
      0.2002000000D+01  0.3132072115D+00
      0.5456000000D+00  0.7603767417D+00
 P   1 1.00       0.000000000000
      0.1517000000D+00  0.1000000000D+01
 D   1 1.00       0.000000000000
      0.5500000000D+00  0.1000000000D+01
 ****
     13 0
 S   7 1.00       0.000000000000
      0.6665000000D+04  0.6935163173D-03
      0.1000000000D+04  0.5341502433D-02
      0.2280000000D+03  0.2713667141D-01
      0.6471000000D+02  0.1019923853D+00
      0.2106000000D+02  0.2755086365D+00
      0.7495000000D+01  0.4510864331D+00
      0.2797000000D+01  0.2875657448D+00
 S   7 1.00       0.000000000000
      0.6665000000D+04  0.7733547404D-05
      0.2280000000D+03  0.2780721367D-03
      0.6471000000D+02 -0.2578756542D-02
      0.2106000000D+02 -0.8950876838D-02
      0.7495000000D+01 -0.1060588547D+00
      0.2797000000D+01 -0.1315176856D+00
      0.5215000000D+00  0.1099486598D+01
 S   1 1.00       0.000000000000
      0.1596000000D+00  0.1000000000D+01
 P   3 1.00       0.000000000000
      0.9439000000D+01  0.5697925159D-01
      0.2002000000D+01  0.3132072115D+00
      0.5456000000D+00  0.7603767417D+00
 P   1 1.00       0.000000000000
      0.1517000000D+00  0.1000000000D+01
 D   1 1.00       0.000000000000
      0.5500000000D+00  0.1000000000D+01
 ****
     14 0
 S   3 1.00       0.000000000000
      0.1301000000D+02  0.3349872639D-01
      0.1962000000D+01  0.2348008012D+00
      0.4446000000D+00  0.8136829579D+00
 S   1 1.00       0.000000000000
      0.1220000000D+00  0.1000000000D+01
 P   1 1.00       0.000000000000
      0.7270000000D+00  0.1000000000D+01
 ****
     15 0
 S   3 1.00       0.000000000000
      0.1301000000D+02  0.3349872639D-01
      0.1962000000D+01  0.2348008012D+00
      0.4446000000D+00  0.8136829579D+00
 S   1 1.00       0.000000000000
      0.1220000000D+00  0.1000000000D+01
 P   1 1.00       0.000000000000
      0.7270000000D+00  0.1000000000D+01
 ****
     16 0
 S   3 1.00       0.000000000000
      0.1301000000D+02  0.3349872639D-01
      0.1962000000D+01  0.2348008012D+00
      0.4446000000D+00  0.8136829579D+00
 S   1 1.00       0.000000000000
      0.1220000000D+00  0.1000000000D+01
 P   1 1.00       0.000000000000
      0.7270000000D+00  0.1000000000D+01
 ****
     17 0
 S   7 1.00       0.000000000000
      0.6665000000D+04  0.6935163173D-03
      0.1000000000D+04  0.5341502433D-02
      0.2280000000D+03  0.2713667141D-01
      0.6471000000D+02  0.1019923853D+00
      0.2106000000D+02  0.2755086365D+00
      0.7495000000D+01  0.4510864331D+00
      0.2797000000D+01  0.2875657448D+00
 S   7 1.00       0.000000000000
      0.6665000000D+04  0.7733547404D-05
      0.2280000000D+03  0.2780721367D-03
      0.6471000000D+02 -0.2578756542D-02
      0.2106000000D+02 -0.8950876838D-02
      0.7495000000D+01 -0.1060588547D+00
      0.2797000000D+01 -0.1315176856D+00
      0.5215000000D+00  0.1099486598D+01
 S   1 1.00       0.000000000000
      0.1596000000D+00  0.1000000000D+01
 P   3 1.00       0.000000000000
      0.9439000000D+01  0.5697925159D-01
      0.2002000000D+01  0.3132072115D+00
      0.5456000000D+00  0.7603767417D+00
 P   1 1.00       0.000000000000
      0.1517000000D+00  0.1000000000D+01
 D   1 1.00       0.000000000000
      0.5500000000D+00  0.1000000000D+01
 ****
     18 0
 S   3 1.00       0.000000000000
      0.1301000000D+02  0.3349872639D-01
      0.1962000000D+01  0.2348008012D+00
      0.4446000000D+00  0.8136829579D+00
 S   1 1.00       0.000000000000
      0.1220000000D+00  0.1000000000D+01
 P   1 1.00       0.000000000000
      0.7270000000D+00  0.1000000000D+01
 ****
     19 0
 S   3 1.00       0.000000000000
      0.1301000000D+02  0.3349872639D-01
      0.1962000000D+01  0.2348008012D+00
      0.4446000000D+00  0.8136829579D+00
 S   1 1.00       0.000000000000
      0.1220000000D+00  0.1000000000D+01
 P   1 1.00       0.000000000000
      0.7270000000D+00  0.1000000000D+01
 ****
     20 0
 S   7 1.00       0.000000000000
      0.6665000000D+04  0.6935163173D-03
      0.1000000000D+04  0.5341502433D-02
      0.2280000000D+03  0.2713667141D-01
      0.6471000000D+02  0.1019923853D+00
      0.2106000000D+02  0.2755086365D+00
      0.7495000000D+01  0.4510864331D+00
      0.2797000000D+01  0.2875657448D+00
 S   7 1.00       0.000000000000
      0.6665000000D+04  0.7733547404D-05
      0.2280000000D+03  0.2780721367D-03
      0.6471000000D+02 -0.2578756542D-02
      0.2106000000D+02 -0.8950876838D-02
      0.7495000000D+01 -0.1060588547D+00
      0.2797000000D+01 -0.1315176856D+00
      0.5215000000D+00  0.1099486598D+01
 S   1 1.00       0.000000000000
      0.1596000000D+00  0.1000000000D+01
 P   3 1.00       0.000000000000
      0.9439000000D+01  0.5697925159D-01
      0.2002000000D+01  0.3132072115D+00
      0.5456000000D+00  0.7603767417D+00
 P   1 1.00       0.000000000000
      0.1517000000D+00  0.1000000000D+01
 D   1 1.00       0.000000000000
      0.5500000000D+00  0.1000000000D+01
 ****
     21 0
 S   7 1.00       0.000000000000
      0.6665000000D+04  0.6935163173D-03
      0.1000000000D+04  0.5341502433D-02
      0.2280000000D+03  0.2713667141D-01
      0.6471000000D+02  0.1019923853D+00
      0.2106000000D+02  0.2755086365D+00
      0.7495000000D+01  0.4510864331D+00
      0.2797000000D+01  0.2875657448D+00
 S   7 1.00       0.000000000000
      0.6665000000D+04  0.7733547404D-05
      0.2280000000D+03  0.2780721367D-03
      0.6471000000D+02 -0.2578756542D-02
      0.2106000000D+02 -0.8950876838D-02
      0.7495000000D+01 -0.1060588547D+00
      0.2797000000D+01 -0.1315176856D+00
      0.5215000000D+00  0.1099486598D+01
 S   1 1.00       0.000000000000
      0.1596000000D+00  0.1000000000D+01
 P   3 1.00       0.000000000000
      0.9439000000D+01  0.5697925159D-01
      0.2002000000D+01  0.3132072115D+00
      0.5456000000D+00  0.7603767417D+00
 P   1 1.00       0.000000000000
      0.1517000000D+00  0.1000000000D+01
 D   1 1.00       0.000000000000
      0.5500000000D+00  0.1000000000D+01
 ****
     22 0
 S   3 1.00       0.000000000000
      0.1301000000D+02  0.3349872639D-01
      0.1962000000D+01  0.2348008012D+00
      0.4446000000D+00  0.8136829579D+00
 S   1 1.00       0.000000000000
      0.1220000000D+00  0.1000000000D+01
 P   1 1.00       0.000000000000
      0.7270000000D+00  0.1000000000D+01
 ****
     23 0
 S   3 1.00       0.000000000000
      0.1301000000D+02  0.3349872639D-01
      0.1962000000D+01  0.2348008012D+00
      0.4446000000D+00  0.8136829579D+00
 S   1 1.00       0.000000000000
      0.1220000000D+00  0.1000000000D+01
 P   1 1.00       0.000000000000
      0.7270000000D+00  0.1000000000D+01
 ****
     24 0
 S   3 1.00       0.000000000000
      0.1301000000D+02  0.3349872639D-01
      0.1962000000D+01  0.2348008012D+00
      0.4446000000D+00  0.8136829579D+00
 S   1 1.00       0.000000000000
      0.1220000000D+00  0.1000000000D+01
 P   1 1.00       0.000000000000
      0.7270000000D+00  0.1000000000D+01
 ****
     25 0
 S   7 1.00       0.000000000000
      0.6665000000D+04  0.6935163173D-03
      0.1000000000D+04  0.5341502433D-02
      0.2280000000D+03  0.2713667141D-01
      0.6471000000D+02  0.1019923853D+00
      0.2106000000D+02  0.2755086365D+00
      0.7495000000D+01  0.4510864331D+00
      0.2797000000D+01  0.2875657448D+00
 S   7 1.00       0.000000000000
      0.6665000000D+04  0.7733547404D-05
      0.2280000000D+03  0.2780721367D-03
      0.6471000000D+02 -0.2578756542D-02
      0.2106000000D+02 -0.8950876838D-02
      0.7495000000D+01 -0.1060588547D+00
      0.2797000000D+01 -0.1315176856D+00
      0.5215000000D+00  0.1099486598D+01
 S   1 1.00       0.000000000000
      0.1596000000D+00  0.1000000000D+01
 P   3 1.00       0.000000000000
      0.9439000000D+01  0.5697925159D-01
      0.2002000000D+01  0.3132072115D+00
      0.5456000000D+00  0.7603767417D+00
 P   1 1.00       0.000000000000
      0.1517000000D+00  0.1000000000D+01
 D   1 1.00       0.000000000000
      0.5500000000D+00  0.1000000000D+01
 ****
     26 0
 S   3 1.00       0.000000000000
      0.1301000000D+02  0.3349872639D-01
      0.1962000000D+01  0.2348008012D+00
      0.4446000000D+00  0.8136829579D+00
 S   1 1.00       0.000000000000
      0.1220000000D+00  0.1000000000D+01
 P   1 1.00       0.000000000000
      0.7270000000D+00  0.1000000000D+01
 ****
     27 0
 S   3 1.00       0.000000000000
      0.1301000000D+02  0.3349872639D-01
      0.1962000000D+01  0.2348008012D+00
      0.4446000000D+00  0.8136829579D+00
 S   1 1.00       0.000000000000
      0.1220000000D+00  0.1000000000D+01
 P   1 1.00       0.000000000000
      0.7270000000D+00  0.1000000000D+01
 ****
     28 0
 S   7 1.00       0.000000000000
      0.6665000000D+04  0.6935163173D-03
      0.1000000000D+04  0.5341502433D-02
      0.2280000000D+03  0.2713667141D-01
      0.6471000000D+02  0.1019923853D+00
      0.2106000000D+02  0.2755086365D+00
      0.7495000000D+01  0.4510864331D+00
      0.2797000000D+01  0.2875657448D+00
 S   7 1.00       0.000000000000
      0.6665000000D+04  0.7733547404D-05
      0.2280000000D+03  0.2780721367D-03
      0.6471000000D+02 -0.2578756542D-02
      0.2106000000D+02 -0.8950876838D-02
      0.7495000000D+01 -0.1060588547D+00
      0.2797000000D+01 -0.1315176856D+00
      0.5215000000D+00  0.1099486598D+01
 S   1 1.00       0.000000000000
      0.1596000000D+00  0.1000000000D+01
 P   3 1.00       0.000000000000
      0.9439000000D+01  0.5697925159D-01
      0.2002000000D+01  0.3132072115D+00
      0.5456000000D+00  0.7603767417D+00
 P   1 1.00       0.000000000000
      0.1517000000D+00  0.1000000000D+01
 D   1 1.00       0.000000000000
      0.5500000000D+00  0.1000000000D+01
 ****
     29 0
 S   7 1.00       0.000000000000
      0.6665000000D+04  0.6935163173D-03
      0.1000000000D+04  0.5341502433D-02
      0.2280000000D+03  0.2713667141D-01
      0.6471000000D+02  0.1019923853D+00
      0.2106000000D+02  0.2755086365D+00
      0.7495000000D+01  0.4510864331D+00
      0.2797000000D+01  0.2875657448D+00
 S   7 1.00       0.000000000000
      0.6665000000D+04  0.7733547404D-05
      0.2280000000D+03  0.2780721367D-03
      0.6471000000D+02 -0.2578756542D-02
      0.2106000000D+02 -0.8950876838D-02
      0.7495000000D+01 -0.1060588547D+00
      0.2797000000D+01 -0.1315176856D+00
      0.5215000000D+00  0.1099486598D+01
 S   1 1.00       0.000000000000
      0.1596000000D+00  0.1000000000D+01
 P   3 1.00       0.000000000000
      0.9439000000D+01  0.5697925159D-01
      0.2002000000D+01  0.3132072115D+00
      0.5456000000D+00  0.7603767417D+00
 P   1 1.00       0.000000000000
      0.1517000000D+00  0.1000000000D+01
 D   1 1.00       0.000000000000
      0.5500000000D+00  0.1000000000D+01
 ****
     30 0
 S   3 1.00       0.000000000000
      0.1301000000D+02  0.3349872639D-01
      0.1962000000D+01  0.2348008012D+00
      0.4446000000D+00  0.8136829579D+00
 S   1 1.00       0.000000000000
      0.1220000000D+00  0.1000000000D+01
 P   1 1.00       0.000000000000
      0.7270000000D+00  0.1000000000D+01
 ****
     31 0
 S   3 1.00       0.000000000000
      0.1301000000D+02  0.3349872639D-01
      0.1962000000D+01  0.2348008012D+00
      0.4446000000D+00  0.8136829579D+00
 S   1 1.00       0.000000000000
      0.1220000000D+00  0.1000000000D+01
 P   1 1.00       0.000000000000
      0.7270000000D+00  0.1000000000D+01
 ****
     32 0
 S   3 1.00       0.000000000000
      0.1301000000D+02  0.3349872639D-01
      0.1962000000D+01  0.2348008012D+00
      0.4446000000D+00  0.8136829579D+00
 S   1 1.00       0.000000000000
      0.1220000000D+00  0.1000000000D+01
 P   1 1.00       0.000000000000
      0.7270000000D+00  0.1000000000D+01
 ****
     33 0
 S   7 1.00       0.000000000000
      0.6665000000D+04  0.6935163173D-03
      0.1000000000D+04  0.5341502433D-02
      0.2280000000D+03  0.2713667141D-01
      0.6471000000D+02  0.1019923853D+00
      0.2106000000D+02  0.2755086365D+00
      0.7495000000D+01  0.4510864331D+00
      0.2797000000D+01  0.2875657448D+00
 S   7 1.00       0.000000000000
      0.6665000000D+04  0.7733547404D-05
      0.2280000000D+03  0.2780721367D-03
      0.6471000000D+02 -0.2578756542D-02
      0.2106000000D+02 -0.8950876838D-02
      0.7495000000D+01 -0.1060588547D+00
      0.2797000000D+01 -0.1315176856D+00
      0.5215000000D+00  0.1099486598D+01
 S   1 1.00       0.000000000000
      0.1596000000D+00  0.1000000000D+01
 P   3 1.00       0.000000000000
      0.9439000000D+01  0.5697925159D-01
      0.2002000000D+01  0.3132072115D+00
      0.5456000000D+00  0.7603767417D+00
 P   1 1.00       0.000000000000
      0.1517000000D+00  0.1000000000D+01
 D   1 1.00       0.000000000000
      0.5500000000D+00  0.1000000000D+01
 ****
     34 0
 S   3 1.00       0.000000000000
      0.1301000000D+02  0.3349872639D-01
      0.1962000000D+01  0.2348008012D+00
      0.4446000000D+00  0.8136829579D+00
 S   1 1.00       0.000000000000
      0.1220000000D+00  0.1000000000D+01
 P   1 1.00       0.000000000000
      0.7270000000D+00  0.1000000000D+01
 ****
     35 0
 S   3 1.00       0.000000000000
      0.1301000000D+02  0.3349872639D-01
      0.1962000000D+01  0.2348008012D+00
      0.4446000000D+00  0.8136829579D+00
 S   1 1.00       0.000000000000
      0.1220000000D+00  0.1000000000D+01
 P   1 1.00       0.000000000000
      0.7270000000D+00  0.1000000000D+01
 ****
     36 0
 S   7 1.00       0.000000000000
      0.6665000000D+04  0.6935163173D-03
      0.1000000000D+04  0.5341502433D-02
      0.2280000000D+03  0.2713667141D-01
      0.6471000000D+02  0.1019923853D+00
      0.2106000000D+02  0.2755086365D+00
      0.7495000000D+01  0.4510864331D+00
      0.2797000000D+01  0.2875657448D+00
 S   7 1.00       0.000000000000
      0.6665000000D+04  0.7733547404D-05
      0.2280000000D+03  0.2780721367D-03
      0.6471000000D+02 -0.2578756542D-02
      0.2106000000D+02 -0.8950876838D-02
      0.7495000000D+01 -0.1060588547D+00
      0.2797000000D+01 -0.1315176856D+00
      0.5215000000D+00  0.1099486598D+01
 S   1 1.00       0.000000000000
      0.1596000000D+00  0.1000000000D+01
 P   3 1.00       0.000000000000
      0.9439000000D+01  0.5697925159D-01
      0.2002000000D+01  0.3132072115D+00
      0.5456000000D+00  0.7603767417D+00
 P   1 1.00       0.000000000000
      0.1517000000D+00  0.1000000000D+01
 D   1 1.00       0.000000000000
      0.5500000000D+00  0.1000000000D+01
 ****
     37 0
 S   3 1.00       0.000000000000
      0.1301000000D+02  0.3349872639D-01
      0.1962000000D+01  0.2348008012D+00
      0.4446000000D+00  0.8136829579D+00
 S   1 1.00       0.000000000000
      0.1220000000D+00  0.1000000000D+01
 P   1 1.00       0.000000000000
      0.7270000000D+00  0.1000000000D+01
 ****
     38 0
 S   3 1.00       0.000000000000
      0.1301000000D+02  0.3349872639D-01
      0.1962000000D+01  0.2348008012D+00
      0.4446000000D+00  0.8136829579D+00
 S   1 1.00       0.000000000000
      0.1220000000D+00  0.1000000000D+01
 P   1 1.00       0.000000000000
      0.7270000000D+00  0.1000000000D+01
 ****

   316 basis functions,   630 primitive gaussians,   330 cartesian basis functions
    54 alpha electrons       54 beta electrons
       nuclear repulsion energy      1041.7462136556 Hartrees.
 IExCor= 1009 DFT=T Ex=PBE Corr=PBE ExCW=0 ScaHFX=  0.000000
 ScaDFX=  1.000000  1.000000  1.000000  1.000000 ScalE2=  1.000000  1.000000
 IRadAn=      5 IRanWt=     -1 IRanGd=            0 ICorTp=0 IEmpDi=141
 NAtoms=   38 NActive=   38 NUniq=   38 SFac= 1.00D+00 NAtFMM=   60 NAOKFM=F Big=F
 Integral buffers will be    131072 words long.
 Raffenetti 2 integral format.
 Two-electron integral symmetry is turned off.
 R6Disp:  Grimme-D3(BJ) Dispersion energy=       -0.0493942511 Hartrees.
 Nuclear repulsion after empirical dispersion term =     1041.6968194045 Hartrees.
 Leave Link  301 at Sat Jul  4 23:08:16 2020, MaxMem= 16642998272 cpu:         8.2
 (Enter /home/fuchs/agschreiner/public/bin/gaussian09-E.01/g09/l302.exe)
 NPDir=0 NMtPBC=     1 NCelOv=     1 NCel=       1 NClECP=     1 NCelD=      1
         NCelK=      1 NCelE2=     1 NClLst=     1 CellRange=     0.0.
 One-electron integrals computed using PRISM.
 NBasis=   316 RedAO= T EigKep=  1.68D-03  NBF=   316
 NBsUse=   316 1.00D-06 EigRej= -1.00D+00 NBFU=   316
 Precomputing XC quadrature grid using
 IXCGrd= 4 IRadAn=           5 IRanWt=          -1 IRanGd=           0 AccXCQ= 0.00D+00.
 Generated NRdTot=       0 NPtTot=           0 NUsed=           0 NTot=          32
 NSgBfM=   329   329   329   329   329 MxSgAt=    38 MxSgA2=    38.
 Leave Link  302 at Sat Jul  4 23:08:18 2020, MaxMem= 16642998272 cpu:        22.3
 (Enter /home/fuchs/agschreiner/public/bin/gaussian09-E.01/g09/l303.exe)
 DipDrv:  MaxL=1.
 Leave Link  303 at Sat Jul  4 23:08:19 2020, MaxMem= 16642998272 cpu:         4.3
 (Enter /home/fuchs/agschreiner/public/bin/gaussian09-E.01/g09/l401.exe)
 ExpMin= 1.22D-01 ExpMax= 6.67D+03 ExpMxC= 2.28D+02 IAcc=3 IRadAn=         5 AccDes= 0.00D+00
 Harris functional with IExCor= 1009 and IRadAn=       5 diagonalized for initial guess.
 HarFok:  IExCor= 1009 AccDes= 0.00D+00 IRadAn=         5 IDoV= 1 UseB2=F ITyADJ=14
 ICtDFT=  3500011 ScaDFX=  1.000000  1.000000  1.000000  1.000000
 FoFCou: FMM=F IPFlag=           0 FMFlag=      100000 FMFlg1=           0
         NFxFlg=           0 DoJE=T BraDBF=F KetDBF=T FulRan=T
         wScrn=  0.000000 ICntrl=     500 IOpCl=  0 I1Cent=   200000004 NGrid=           0
         NMat0=    1 NMatS0=      1 NMatT0=    0 NMatD0=    1 NMtDS0=    0 NMtDT0=    0
 Symmetry not used in FoFCou.
 Harris En= -547.617993093575    
 JPrj=0 DoOrth=F DoCkMO=F.
 Leave Link  401 at Sat Jul  4 23:08:22 2020, MaxMem= 16642998272 cpu:        48.2
 (Enter /home/fuchs/agschreiner/public/bin/gaussian09-E.01/g09/l502.exe)
 Closed shell SCF:
 Using DIIS extrapolation, IDIIS=  1040.
 Two-electron integral symmetry not used.
 Keep J ints in memory in canonical form, NReq=1272814827.
 IVT=      353906 IEndB=      353906 NGot= 16642998272 MDV= 15388315626
 LenX= 15388315626 LenY= 15388206285
 Requested convergence on RMS density matrix=1.00D-08 within 128 cycles.
 Requested convergence on MAX density matrix=1.00D-06.
 Requested convergence on             energy=1.00D-06.
 No special actions if energy rises.
 FoFCou: FMM=F IPFlag=           0 FMFlag=           0 FMFlg1=           0
         NFxFlg=           0 DoJE=F BraDBF=F KetDBF=F FulRan=T
         wScrn=  0.000000 ICntrl=     600 IOpCl=  0 I1Cent=           0 NGrid=           0
         NMat0=    1 NMatS0=  50086 NMatT0=    0 NMatD0=    1 NMtDS0=    0 NMtDT0=    0
 Symmetry not used in FoFCou.
 Integral accuracy reduced to 1.0D-05 until final iterations.

 Cycle   1  Pass 0  IDiag  1:
 E= -546.866752934838    
 DIIS: error= 3.56D-02 at cycle   1 NSaved=   1.
 NSaved= 1 IEnMin= 1 EnMin= -546.866752934838     IErMin= 1 ErrMin= 3.56D-02
 ErrMax= 3.56D-02  0.00D+00 EMaxC= 1.00D-01 BMatC= 3.55D-01 BMatP= 3.55D-01
 IDIUse=3 WtCom= 6.44D-01 WtEn= 3.56D-01
 Coeff-Com:  0.100D+01
 Coeff-En:   0.100D+01
 Coeff:      0.100D+01
 Gap=     0.181 Goal=   None    Shift=    0.000
 GapD=    0.181 DampG=1.000 DampE=0.500 DampFc=0.5000 IDamp=-1.
 Damping current iteration by 5.00D-01
 RMSDP=6.99D-03 MaxDP=1.62D-01              OVMax= 2.42D-01

 Cycle   2  Pass 0  IDiag  1:
 E= -546.936066532103     Delta-E=       -0.069313597265 Rises=F Damp=T
 DIIS: error= 1.38D-02 at cycle   2 NSaved=   2.
 NSaved= 2 IEnMin= 2 EnMin= -546.936066532103     IErMin= 2 ErrMin= 1.38D-02
 ErrMax= 1.38D-02  0.00D+00 EMaxC= 1.00D-01 BMatC= 6.19D-02 BMatP= 3.55D-01
 IDIUse=3 WtCom= 8.62D-01 WtEn= 1.38D-01
 Coeff-Com:  0.273D+00 0.727D+00
 Coeff-En:   0.428D+00 0.572D+00
 Coeff:      0.295D+00 0.705D+00
 Gap=     0.269 Goal=   None    Shift=    0.000
 RMSDP=2.15D-03 MaxDP=6.46D-02 DE=-6.93D-02 OVMax= 1.80D-01

 Cycle   3  Pass 0  IDiag  1:
 E= -547.265845548565     Delta-E=       -0.329779016461 Rises=F Damp=F
 DIIS: error= 1.11D-02 at cycle   3 NSaved=   3.
 NSaved= 3 IEnMin= 3 EnMin= -547.265845548565     IErMin= 3 ErrMin= 1.11D-02
 ErrMax= 1.11D-02  0.00D+00 EMaxC= 1.00D-01 BMatC= 2.84D-02 BMatP= 6.19D-02
 IDIUse=3 WtCom= 8.89D-01 WtEn= 1.11D-01
 Coeff-Com:  0.156D+00 0.444D+00 0.400D+00
 Coeff-En:   0.000D+00 0.000D+00 0.100D+01
 Coeff:      0.139D+00 0.394D+00 0.467D+00
 Gap=     0.258 Goal=   None    Shift=    0.000
 RMSDP=7.64D-04 MaxDP=2.14D-02 DE=-3.30D-01 OVMax= 3.15D-02

 Cycle   4  Pass 0  IDiag  1:
 E= -547.289246558663     Delta-E=       -0.023401010098 Rises=F Damp=F
 DIIS: error= 4.11D-03 at cycle   4 NSaved=   4.
 NSaved= 4 IEnMin= 4 EnMin= -547.289246558663     IErMin= 4 ErrMin= 4.11D-03
 ErrMax= 4.11D-03  0.00D+00 EMaxC= 1.00D-01 BMatC= 3.52D-03 BMatP= 2.84D-02
 IDIUse=3 WtCom= 9.59D-01 WtEn= 4.11D-02
 Coeff-Com:  0.305D-01 0.944D-01 0.273D+00 0.603D+00
 Coeff-En:   0.000D+00 0.000D+00 0.127D+00 0.873D+00
 Coeff:      0.293D-01 0.905D-01 0.267D+00 0.614D+00
 Gap=     0.260 Goal=   None    Shift=    0.000
 RMSDP=1.74D-04 MaxDP=6.58D-03 DE=-2.34D-02 OVMax= 8.76D-03

 Cycle   5  Pass 0  IDiag  1:
 E= -547.292506939535     Delta-E=       -0.003260380872 Rises=F Damp=F
 DIIS: error= 4.96D-04 at cycle   5 NSaved=   5.
 NSaved= 5 IEnMin= 5 EnMin= -547.292506939535     IErMin= 5 ErrMin= 4.96D-04
 ErrMax= 4.96D-04  0.00D+00 EMaxC= 1.00D-01 BMatC= 5.01D-05 BMatP= 3.52D-03
 IDIUse=3 WtCom= 9.95D-01 WtEn= 4.96D-03
 Coeff-Com:  0.142D-02 0.878D-02 0.594D-01 0.214D+00 0.716D+00
 Coeff-En:   0.000D+00 0.000D+00 0.000D+00 0.000D+00 0.100D+01
 Coeff:      0.141D-02 0.873D-02 0.591D-01 0.213D+00 0.718D+00
 Gap=     0.260 Goal=   None    Shift=    0.000
 RMSDP=2.55D-05 MaxDP=7.68D-04 DE=-3.26D-03 OVMax= 1.08D-03

 Cycle   6  Pass 0  IDiag  1:
 E= -547.292554616941     Delta-E=       -0.000047677406 Rises=F Damp=F
 DIIS: error= 9.86D-05 at cycle   6 NSaved=   6.
 NSaved= 6 IEnMin= 6 EnMin= -547.292554616941     IErMin= 6 ErrMin= 9.86D-05
 ErrMax= 9.86D-05  0.00D+00 EMaxC= 1.00D-01 BMatC= 3.81D-06 BMatP= 5.01D-05
 IDIUse=1 WtCom= 1.00D+00 WtEn= 0.00D+00
 Coeff-Com: -0.106D-03 0.102D-02 0.211D-01 0.887D-01 0.369D+00 0.520D+00
 Coeff:     -0.106D-03 0.102D-02 0.211D-01 0.887D-01 0.369D+00 0.520D+00
 Gap=     0.260 Goal=   None    Shift=    0.000
 RMSDP=6.43D-06 MaxDP=2.25D-04 DE=-4.77D-05 OVMax= 2.81D-04

 Initial convergence to 1.0D-05 achieved.  Increase integral accuracy.
 Cycle   7  Pass 1  IDiag  1:
 E= -547.292607795635     Delta-E=       -0.000053178694 Rises=F Damp=F
 DIIS: error= 2.54D-05 at cycle   1 NSaved=   1.
 NSaved= 1 IEnMin= 1 EnMin= -547.292607795635     IErMin= 1 ErrMin= 2.54D-05
 ErrMax= 2.54D-05  0.00D+00 EMaxC= 1.00D-01 BMatC= 2.87D-07 BMatP= 2.87D-07
 IDIUse=1 WtCom= 1.00D+00 WtEn= 0.00D+00
 Coeff-Com:  0.100D+01
 Coeff:      0.100D+01
 Gap=     0.260 Goal=   None    Shift=    0.000
 RMSDP=6.43D-06 MaxDP=2.25D-04 DE=-5.32D-05 OVMax= 1.57D-04

 Cycle   8  Pass 1  IDiag  1:
 E= -547.292607621846     Delta-E=        0.000000173789 Rises=F Damp=F
 DIIS: error= 3.84D-05 at cycle   2 NSaved=   2.
 NSaved= 2 IEnMin= 1 EnMin= -547.292607795635     IErMin= 1 ErrMin= 2.54D-05
 ErrMax= 3.84D-05  0.00D+00 EMaxC= 1.00D-01 BMatC= 4.85D-07 BMatP= 2.87D-07
 IDIUse=1 WtCom= 1.00D+00 WtEn= 0.00D+00
 Coeff-Com:  0.571D+00 0.429D+00
 Coeff:      0.571D+00 0.429D+00
 Gap=     0.260 Goal=   None    Shift=    0.000
 RMSDP=2.55D-06 MaxDP=8.03D-05 DE= 1.74D-07 OVMax= 9.37D-05

 Cycle   9  Pass 1  IDiag  1:
 E= -547.292608102568     Delta-E=       -0.000000480721 Rises=F Damp=F
 DIIS: error= 7.36D-06 at cycle   3 NSaved=   3.
 NSaved= 3 IEnMin= 3 EnMin= -547.292608102568     IErMin= 3 ErrMin= 7.36D-06
 ErrMax= 7.36D-06  0.00D+00 EMaxC= 1.00D-01 BMatC= 1.12D-08 BMatP= 2.87D-07
 IDIUse=1 WtCom= 1.00D+00 WtEn= 0.00D+00
 Coeff-Com:  0.134D+00 0.163D+00 0.704D+00
 Coeff:      0.134D+00 0.163D+00 0.704D+00
 Gap=     0.260 Goal=   None    Shift=    0.000
 RMSDP=6.59D-07 MaxDP=1.38D-05 DE=-4.81D-07 OVMax= 2.40D-05

 Cycle  10  Pass 1  IDiag  1:
 E= -547.292608106712     Delta-E=       -0.000000004145 Rises=F Damp=F
 DIIS: error= 5.34D-06 at cycle   4 NSaved=   4.
 NSaved= 4 IEnMin= 4 EnMin= -547.292608106712     IErMin= 4 ErrMin= 5.34D-06
 ErrMax= 5.34D-06  0.00D+00 EMaxC= 1.00D-01 BMatC= 6.95D-09 BMatP= 1.12D-08
 IDIUse=1 WtCom= 1.00D+00 WtEn= 0.00D+00
 Coeff-Com:  0.138D-01 0.540D-01 0.480D+00 0.452D+00
 Coeff:      0.138D-01 0.540D-01 0.480D+00 0.452D+00
 Gap=     0.260 Goal=   None    Shift=    0.000
 RMSDP=3.37D-07 MaxDP=7.38D-06 DE=-4.14D-09 OVMax= 1.21D-05

 Cycle  11  Pass 1  IDiag  1:
 E= -547.292608113034     Delta-E=       -0.000000006321 Rises=F Damp=F
 DIIS: error= 1.06D-06 at cycle   5 NSaved=   5.
 NSaved= 5 IEnMin= 5 EnMin= -547.292608113034     IErMin= 5 ErrMin= 1.06D-06
 ErrMax= 1.06D-06  0.00D+00 EMaxC= 1.00D-01 BMatC= 2.78D-10 BMatP= 6.95D-09
 IDIUse=1 WtCom= 1.00D+00 WtEn= 0.00D+00
 Coeff-Com: -0.248D-02 0.169D-01 0.202D+00 0.252D+00 0.531D+00
 Coeff:     -0.248D-02 0.169D-01 0.202D+00 0.252D+00 0.531D+00
 Gap=     0.260 Goal=   None    Shift=    0.000
 RMSDP=6.44D-08 MaxDP=1.91D-06 DE=-6.32D-09 OVMax= 2.46D-06

 Cycle  12  Pass 1  IDiag  1:
 E= -547.292608113330     Delta-E=       -0.000000000297 Rises=F Damp=F
 DIIS: error= 5.36D-08 at cycle   6 NSaved=   6.
 NSaved= 6 IEnMin= 6 EnMin= -547.292608113330     IErMin= 6 ErrMin= 5.36D-08
 ErrMax= 5.36D-08  0.00D+00 EMaxC= 1.00D-01 BMatC= 1.16D-12 BMatP= 2.78D-10
 IDIUse=1 WtCom= 1.00D+00 WtEn= 0.00D+00
 Coeff-Com: -0.883D-03 0.416D-02 0.497D-01 0.663D-01 0.152D+00 0.729D+00
 Coeff:     -0.883D-03 0.416D-02 0.497D-01 0.663D-01 0.152D+00 0.729D+00
 Gap=     0.260 Goal=   None    Shift=    0.000
 RMSDP=6.92D-09 MaxDP=1.84D-07 DE=-2.97D-10 OVMax= 2.70D-07

 SCF Done:  E(RPBE-PBE) =  -547.292608113     A.U. after   12 cycles
            NFock= 12  Conv=0.69D-08     -V/T= 2.0081
 KE= 5.429217213740D+02 PE=-3.349964789628D+03 EE= 1.218053640736D+03
 Leave Link  502 at Sat Jul  4 23:09:33 2020, MaxMem= 16642998272 cpu:       854.1
 (Enter /home/fuchs/agschreiner/public/bin/gaussian09-E.01/g09/l508.exe)
 QCSCF skips out because SCF is already converged.
 Leave Link  508 at Sat Jul  4 23:09:34 2020, MaxMem= 16642998272 cpu:         0.0
 (Enter /home/fuchs/agschreiner/public/bin/gaussian09-E.01/g09/l601.exe)
 Copying SCF densities to generalized density rwf, IOpCl= 0 IROHF=0.

 **********************************************************************

            Population analysis using the SCF density.

 **********************************************************************

 Alpha  occ. eigenvalues --   -9.90075  -9.90060  -9.90059  -9.90056  -9.88537
 Alpha  occ. eigenvalues --   -9.88537  -9.88532  -9.88522  -9.88521  -9.88516
 Alpha  occ. eigenvalues --   -9.88412  -9.88411  -9.88410  -9.88403  -0.79780
 Alpha  occ. eigenvalues --   -0.71724  -0.71722  -0.71720  -0.61512  -0.60584
 Alpha  occ. eigenvalues --   -0.60584  -0.60563  -0.59768  -0.59765  -0.49216
 Alpha  occ. eigenvalues --   -0.49216  -0.49208  -0.45234  -0.39585  -0.39579
 Alpha  occ. eigenvalues --   -0.39578  -0.39555  -0.39538  -0.39538  -0.36941
 Alpha  occ. eigenvalues --   -0.33947  -0.33946  -0.33925  -0.33904  -0.33903
 Alpha  occ. eigenvalues --   -0.32002  -0.32001  -0.31970  -0.31141  -0.31113
 Alpha  occ. eigenvalues --   -0.31112  -0.27842  -0.27836  -0.26585  -0.26580
 Alpha  occ. eigenvalues --   -0.26578  -0.24030  -0.24027  -0.24023
 Alpha virt. eigenvalues --    0.01979   0.05456   0.05457   0.05457   0.06196
 Alpha virt. eigenvalues --    0.06199   0.06199   0.09546   0.09547   0.10030
 Alpha virt. eigenvalues --    0.11125   0.11125   0.11134   0.12172   0.12173
 Alpha virt. eigenvalues --    0.12181   0.13067   0.13069   0.13853   0.13854
 Alpha virt. eigenvalues --    0.13858   0.15074   0.16565   0.16588   0.16591
 Alpha virt. eigenvalues --    0.18736   0.18754   0.18754   0.20784   0.20789
 Alpha virt. eigenvalues --    0.21529   0.21531   0.21559   0.22547   0.22547
 Alpha virt. eigenvalues --    0.22573   0.24815   0.26018   0.26020   0.26058
 Alpha virt. eigenvalues --    0.38371   0.38374   0.38405   0.38555   0.38594
 Alpha virt. eigenvalues --    0.38596   0.39394   0.39396   0.40345   0.46071
 Alpha virt. eigenvalues --    0.46092   0.46095   0.51482   0.51496   0.51496
 Alpha virt. eigenvalues --    0.53197   0.53199   0.53440   0.53457   0.53458
 Alpha virt. eigenvalues --    0.55761   0.57714   0.57735   0.57738   0.59032
 Alpha virt. eigenvalues --    0.59034   0.59035   0.59789   0.59798   0.59799
 Alpha virt. eigenvalues --    0.61072   0.61073   0.61096   0.61516   0.61518
 Alpha virt. eigenvalues --    0.61518   0.62352   0.62354   0.64645   0.64645
 Alpha virt. eigenvalues --    0.64665   0.64674   0.64723   0.64726   0.67966
 Alpha virt. eigenvalues --    0.67967   0.68713   0.69644   0.69647   0.69664
 Alpha virt. eigenvalues --    0.70445   0.70446   0.70460   0.71066   0.72092
 Alpha virt. eigenvalues --    0.72095   0.72097   0.78761   0.78768   0.78848
 Alpha virt. eigenvalues --    0.80546   0.84349   0.84354   0.93798   0.93837
 Alpha virt. eigenvalues --    0.93838   0.99258   0.99703   0.99759   0.99762
 Alpha virt. eigenvalues --    1.08584   1.08618   1.08624   1.15964   1.15965
 Alpha virt. eigenvalues --    1.20174   1.20217   1.20220   1.25666   1.25682
 Alpha virt. eigenvalues --    1.25686   1.25951   1.27333   1.27373   1.27376
 Alpha virt. eigenvalues --    1.28292   1.28295   1.28335   1.33551   1.33557
 Alpha virt. eigenvalues --    1.35240   1.35243   1.35244   1.35769   1.37698
 Alpha virt. eigenvalues --    1.37704   1.37799   1.43321   1.43323   1.43436
 Alpha virt. eigenvalues --    1.46423   1.46469   1.46474   1.49763   1.49766
 Alpha virt. eigenvalues --    1.49803   1.51175   1.51177   1.51195   1.52156
 Alpha virt. eigenvalues --    1.53360   1.53365   1.54451   1.56221   1.56270
 Alpha virt. eigenvalues --    1.56275   1.58851   1.58851   1.58857   1.60631
 Alpha virt. eigenvalues --    1.60633   1.61310   1.61313   1.61355   1.64818
 Alpha virt. eigenvalues --    1.64821   1.65681   1.66998   1.67004   1.67010
 Alpha virt. eigenvalues --    1.68718   1.68721   1.68745   1.72810   1.72899
 Alpha virt. eigenvalues --    1.72902   1.73727   1.73740   1.73745   1.73866
 Alpha virt. eigenvalues --    1.73871   1.76099   1.76463   1.76467   1.76468
 Alpha virt. eigenvalues --    1.76652   1.76658   1.82824   1.86105   1.86145
 Alpha virt. eigenvalues --    1.86150   1.89930   1.89974   1.89980   1.92825
 Alpha virt. eigenvalues --    1.92829   1.92921   1.93345   1.93347   1.93365
 Alpha virt. eigenvalues --    1.93441   1.97771   1.97773   1.97802   2.00755
 Alpha virt. eigenvalues --    2.00761   2.00764   2.04092   2.07210   2.07211
 Alpha virt. eigenvalues --    2.10827   2.10847   2.10851   2.14533   2.14537
 Alpha virt. eigenvalues --    2.14553   2.19157   2.19160   2.19181   2.20816
 Alpha virt. eigenvalues --    2.20816   2.20920   2.27512   2.27514   2.31227
 Alpha virt. eigenvalues --    2.31234   2.31392   2.31431   2.31437   2.32753
 Alpha virt. eigenvalues --    2.32755   2.32762   2.34864   2.37698   2.37699
 Alpha virt. eigenvalues --    2.37842   2.37849   2.37978   2.38982   2.39159
 Alpha virt. eigenvalues --    2.39160   2.39188   2.42836   2.42876   2.42879
 Alpha virt. eigenvalues --    2.43017   2.43026   2.43029   2.50412   2.50425
 Alpha virt. eigenvalues --    2.54071   2.54114   2.54119   2.54374   2.54392
 Alpha virt. eigenvalues --    2.54400   2.54596   2.69688   2.69695   2.73480
 Alpha virt. eigenvalues --    2.73481   2.73567
     Molecular Orbital Coefficients:
                           1         2         3         4         5
                           O         O         O         O         O
     Eigenvalues --    -9.90075  -9.90060  -9.90059  -9.90056  -9.88537
   1 1   C  1S          0.00175  -0.00025  -0.00106   0.00184  -0.49628
   2        2S         -0.00103   0.00052   0.00115  -0.00024  -0.01892
   3        3S          0.01350  -0.00551  -0.01321   0.00620   0.01922
   4        4PX        -0.00021  -0.00007  -0.00012  -0.00003   0.00012
   5        4PY        -0.00002  -0.00011   0.00004   0.00011   0.00019
   6        4PZ        -0.00005   0.00006  -0.00006   0.00020  -0.00006
   7        5PX        -0.00064  -0.00223  -0.00531   0.00250   0.00356
   8        5PY        -0.00241   0.00181   0.00053  -0.00000  -0.00343
   9        5PZ        -0.00574   0.00079   0.00288   0.00052  -0.00438
  10        6D 0       -0.00046  -0.00018  -0.00030   0.00014  -0.00008
  11        6D+1       -0.00063   0.00024   0.00043   0.00010   0.00046
  12        6D-1       -0.00049   0.00005   0.00004  -0.00013   0.00055
  13        6D+2       -0.00017   0.00024   0.00069  -0.00048   0.00035
  14        6D-2       -0.00026   0.00005   0.00019   0.00005  -0.00009
  15 2   H  1S         -0.00084   0.00074   0.00066  -0.00039   0.00034
  16        2S          0.00028   0.00004  -0.00070  -0.00031  -0.00053
  17        3PX        -0.00010   0.00008   0.00011  -0.00002   0.00034
  18        3PY        -0.00002  -0.00001   0.00001  -0.00004   0.00108
  19        3PZ         0.00017  -0.00012  -0.00017   0.00004  -0.00072
  20 3   H  1S         -0.00083  -0.00002   0.00103  -0.00029   0.00053
  21        2S          0.00028  -0.00064  -0.00037  -0.00022   0.00050
  22        3PX        -0.00010   0.00003   0.00014  -0.00001   0.00015
  23        3PY         0.00014  -0.00004  -0.00015   0.00005  -0.00107
  24        3PZ         0.00010  -0.00003  -0.00015  -0.00001   0.00002
  25 4   C  1S          0.99137   0.02559   0.01238   0.10215  -0.00021
  26        2S          0.03774   0.00070   0.00033   0.00246  -0.00003
  27        3S         -0.05019  -0.00083  -0.00038  -0.00274   0.00050
  28        4PX         0.00056  -0.00009  -0.00005  -0.00052   0.00000
  29        4PY        -0.00001   0.00034  -0.00002  -0.00006  -0.00013
  30        4PZ        -0.00000   0.00001   0.00034  -0.00004  -0.00004
  31        5PX        -0.01161   0.00114   0.00061   0.00634  -0.00000
  32        5PY         0.00008   0.00161  -0.00009  -0.00035  -0.00597
  33        5PZ        -0.00001   0.00006   0.00164  -0.00017  -0.00206
  34        6D 0       -0.00018   0.00003   0.00000  -0.00019   0.00053
  35        6D+1        0.00000   0.00000   0.00003  -0.00000   0.00010
  36        6D-1        0.00000  -0.00003   0.00007  -0.00000  -0.00003
  37        6D+2        0.00032   0.00010   0.00004   0.00030   0.00038
  38        6D-2       -0.00001   0.00003  -0.00000  -0.00001   0.00029
  39 5   C  1S          0.00272  -0.00007  -0.00004  -0.00048  -0.00075
  40        2S          0.00008  -0.00017  -0.00009  -0.00089  -0.00008
  41        3S          0.00301   0.00115   0.00061   0.00598   0.00003
  42        4PX        -0.00038  -0.00002  -0.00001  -0.00010  -0.00003
  43        4PY         0.00000   0.00009  -0.00000  -0.00002   0.00018
  44        4PZ        -0.00000   0.00000   0.00009  -0.00001   0.00006
  45        5PX         0.00006   0.00062   0.00034   0.00334  -0.00000
  46        5PY         0.00001  -0.00140   0.00008   0.00023   0.00012
  47        5PZ         0.00000  -0.00005  -0.00141   0.00015   0.00005
  48        6D 0        0.00072   0.00008   0.00003   0.00000  -0.00032
  49        6D+1       -0.00000  -0.00000  -0.00001   0.00000  -0.00003
  50        6D-1        0.00000  -0.00003   0.00008  -0.00000   0.00002
  51        6D+2       -0.00124   0.00003   0.00001  -0.00005  -0.00021
  52        6D-2        0.00002  -0.00001   0.00000   0.00000  -0.00008
  53 6   H  1S         -0.00049  -0.00019  -0.00030  -0.00028   0.00005
  54        2S         -0.00055  -0.00010  -0.00034   0.00048  -0.00030
  55        3PX        -0.00001   0.00001   0.00002  -0.00004  -0.00011
  56        3PY        -0.00007   0.00007  -0.00005  -0.00000   0.00011
  57        3PZ        -0.00016  -0.00005  -0.00002   0.00002   0.00004
  58 7   H  1S         -0.00049  -0.00024   0.00022  -0.00032   0.00002
  59        2S         -0.00055  -0.00016   0.00039   0.00042  -0.00015
  60        3PX        -0.00001   0.00001  -0.00003  -0.00004  -0.00005
  61        3PY        -0.00010   0.00005   0.00006  -0.00001   0.00011
  62        3PZ         0.00013   0.00006   0.00000  -0.00002   0.00003
  63 8   H  1S         -0.00049   0.00023  -0.00001  -0.00039  -0.00009
  64        2S         -0.00056   0.00049   0.00007   0.00033   0.00042
  65        3PX        -0.00001  -0.00004  -0.00001  -0.00003   0.00014
  66        3PY         0.00017  -0.00004  -0.00002  -0.00000   0.00010
  67        3PZ         0.00002  -0.00001   0.00009  -0.00001   0.00004
  68 9   C  1S          0.00175  -0.00046   0.00129   0.00164  -0.21737
  69        2S         -0.00103   0.00072  -0.00107  -0.00006  -0.00836
  70        3S          0.01347  -0.00782   0.01294   0.00401   0.00869
  71        4PX        -0.00021  -0.00009   0.00010  -0.00005   0.00006
  72        4PY        -0.00003  -0.00009  -0.00002   0.00016   0.00022
  73        4PZ         0.00004  -0.00007  -0.00011  -0.00016   0.00013
  74        5PX        -0.00067  -0.00316   0.00517   0.00163   0.00162
  75        5PY        -0.00377   0.00214  -0.00085   0.00030  -0.00296
  76        5PZ         0.00495  -0.00077   0.00247  -0.00093   0.00088
  77        6D 0       -0.00020  -0.00025   0.00032   0.00016  -0.00035
  78        6D+1        0.00055  -0.00028   0.00031  -0.00014  -0.00033
  79        6D-1        0.00066  -0.00004   0.00010   0.00016  -0.00030
  80        6D+2       -0.00002   0.00035  -0.00069  -0.00033  -0.00004
  81        6D-2       -0.00041   0.00016  -0.00026   0.00012  -0.00015
  82 10  H  1S         -0.00083   0.00085  -0.00058  -0.00029   0.00006
  83        2S          0.00027  -0.00008   0.00064  -0.00042  -0.00063
  84        3PX        -0.00010   0.00010  -0.00010   0.00000   0.00022
  85        3PY         0.00002  -0.00005   0.00002  -0.00004   0.00052
  86        3PZ        -0.00017   0.00014  -0.00015  -0.00002   0.00044
  87 11  H  1S         -0.00083   0.00017  -0.00105  -0.00011   0.00030
  88        2S          0.00028  -0.00069   0.00021  -0.00026   0.00068
  89        3PX        -0.00010   0.00006  -0.00013   0.00001  -0.00001
  90        3PY         0.00016  -0.00008   0.00018   0.00002  -0.00040
  91        3PZ        -0.00006   0.00004  -0.00009   0.00004  -0.00002
  92 12  C  1S         -0.05979  -0.35445   0.72759   0.57918   0.00034
  93        2S         -0.00300  -0.01403   0.02805   0.02097   0.00016
  94        3S          0.00424   0.01885  -0.03747  -0.02756  -0.00185
  95        4PX         0.00039   0.00006  -0.00011  -0.00008   0.00005
  96        4PY         0.00012   0.00047  -0.00018   0.00003   0.00012
  97        4PZ        -0.00017  -0.00017   0.00055  -0.00016   0.00007
  98        5PX        -0.00018  -0.00275   0.00388  -0.00028   0.00177
  99        5PY        -0.00286  -0.00282   0.00653   0.00046   0.00369
 100        5PZ         0.00375   0.00590  -0.00712  -0.00117   0.00347
 101        6D 0        0.00008   0.00003   0.00010   0.00013   0.00003
 102        6D+1       -0.00006   0.00004  -0.00006  -0.00021  -0.00012
 103        6D-1       -0.00008   0.00001  -0.00012  -0.00035   0.00006
 104        6D+2       -0.00009   0.00004  -0.00003  -0.00006   0.00020
 105        6D-2        0.00005   0.00003   0.00009   0.00014  -0.00033
 106 13  C  1S         -0.00055  -0.00127   0.00221   0.00102   0.00119
 107        2S         -0.00045  -0.00036   0.00028  -0.00064   0.00008
 108        3S          0.00267   0.00105   0.00082   0.00612   0.00027
 109        4PX         0.00008  -0.00006   0.00011   0.00006  -0.00006
 110        4PY        -0.00001  -0.00000   0.00019   0.00015  -0.00004
 111        4PZ         0.00001   0.00012  -0.00016  -0.00022   0.00005
 112        5PX        -0.00172  -0.00008  -0.00006  -0.00039  -0.00024
 113        5PY        -0.00068  -0.00168  -0.00012  -0.00135  -0.00092
 114        5PZ         0.00093   0.00032  -0.00115   0.00227  -0.00058
 115        6D 0        0.00007   0.00020  -0.00035  -0.00027  -0.00003
 116        6D+1       -0.00008  -0.00020   0.00050   0.00033   0.00001
 117        6D-1       -0.00006  -0.00042   0.00081   0.00054  -0.00002
 118        6D+2       -0.00008  -0.00007   0.00019   0.00015  -0.00010
 119        6D-2        0.00006   0.00023  -0.00032  -0.00028   0.00010
 120 14  H  1S         -0.00024  -0.00010  -0.00047  -0.00039  -0.00009
 121        2S          0.00009   0.00013  -0.00078   0.00019  -0.00018
 122        3PX         0.00006  -0.00003  -0.00009  -0.00003  -0.00008
 123        3PY        -0.00003   0.00006  -0.00010   0.00000  -0.00006
 124        3PZ        -0.00000   0.00004  -0.00009  -0.00007   0.00007
 125 15  H  1S          0.00015  -0.00001  -0.00022  -0.00061   0.00002
 126        2S          0.00064   0.00026  -0.00042  -0.00012  -0.00001
 127        3PX        -0.00004  -0.00006   0.00012   0.00009  -0.00000
 128        3PY         0.00004   0.00008   0.00002  -0.00002   0.00006
 129        3PZ        -0.00005   0.00003   0.00006  -0.00000  -0.00000
 130 16  H  1S         -0.00024   0.00032  -0.00018  -0.00050   0.00004
 131        2S          0.00008   0.00072  -0.00037   0.00004   0.00027
 132        3PX         0.00006   0.00008  -0.00001  -0.00006   0.00003
 133        3PY         0.00001  -0.00006   0.00011   0.00007   0.00004
 134        3PZ         0.00003  -0.00006   0.00006  -0.00002  -0.00004
 135 17  C  1S          0.00001   0.00100   0.00146   0.00213  -0.09549
 136        2S          0.00066  -0.00068  -0.00123  -0.00055  -0.00480
 137        3S         -0.00630   0.00858   0.01483   0.00974   0.00868
 138        4PX        -0.00003  -0.00001  -0.00006   0.00016   0.00021
 139        4PY        -0.00006  -0.00023   0.00009  -0.00002   0.00014
 140        4PZ        -0.00014   0.00005  -0.00008  -0.00013  -0.00015
 141        5PX         0.00273  -0.00161  -0.00268  -0.00191  -0.00299
 142        5PY        -0.00074  -0.00351   0.00424   0.00129   0.00081
 143        5PZ        -0.00178   0.00444   0.00379   0.00125   0.00262
 144        6D 0       -0.00019  -0.00028   0.00036   0.00010  -0.00010
 145        6D+1        0.00006   0.00027   0.00002   0.00030  -0.00018
 146        6D-1       -0.00030   0.00070   0.00029   0.00016  -0.00020
 147        6D+2       -0.00027   0.00015   0.00078   0.00038   0.00010
 148        6D-2        0.00003  -0.00036   0.00022   0.00019  -0.00002
 149 18  H  1S          0.00074  -0.00045  -0.00073  -0.00074  -0.00018
 150        2S         -0.00017   0.00030   0.00069  -0.00029   0.00033
 151        3PX        -0.00007   0.00002   0.00005  -0.00001   0.00033
 152        3PY         0.00006  -0.00004  -0.00009  -0.00005   0.00020
 153        3PZ         0.00015  -0.00011  -0.00020  -0.00011   0.00013
 154 19  H  1S          0.00011  -0.00061  -0.00114  -0.00038  -0.00006
 155        2S         -0.00074   0.00015   0.00031   0.00002   0.00096
 156        3PX        -0.00008   0.00012   0.00022   0.00009  -0.00017
 157        3PY         0.00003  -0.00003  -0.00006  -0.00000  -0.00014
 158        3PZ         0.00006  -0.00007  -0.00014  -0.00000  -0.00009
 159 20  C  1S         -0.06636   0.90261   0.11360   0.40254  -0.00126
 160        2S         -0.00325   0.03470   0.00425   0.01412  -0.00040
 161        3S          0.00458  -0.04632  -0.00564  -0.01839   0.00499
 162        4PX         0.00038  -0.00012  -0.00002  -0.00005  -0.00015
 163        4PY        -0.00021   0.00063  -0.00001  -0.00029   0.00001
 164        4PZ        -0.00003   0.00005   0.00034  -0.00007   0.00003
 165        5PX        -0.00015   0.00442   0.00028  -0.00130  -0.00567
 166        5PY         0.00476  -0.01142  -0.00110   0.00133  -0.00177
 167        5PZ         0.00060  -0.00159   0.00150   0.00003   0.00087
 168        6D 0       -0.00001  -0.00011  -0.00002  -0.00023   0.00025
 169        6D+1       -0.00001  -0.00002   0.00006  -0.00003  -0.00011
 170        6D-1        0.00002   0.00004   0.00007   0.00008   0.00005
 171        6D+2       -0.00014  -0.00019  -0.00003  -0.00026  -0.00058
 172        6D-2       -0.00007  -0.00014  -0.00004  -0.00023  -0.00026
 173 21  C  1S         -0.00057   0.00269   0.00028   0.00046  -0.00461
 174        2S         -0.00046   0.00028  -0.00004  -0.00074  -0.00039
 175        3S          0.00266   0.00141   0.00064   0.00607  -0.00043
 176        4PX         0.00007   0.00013   0.00001   0.00003   0.00020
 177        4PY         0.00002  -0.00030  -0.00006  -0.00021  -0.00018
 178        4PZ         0.00000  -0.00005   0.00008  -0.00003  -0.00002
 179        5PX        -0.00170  -0.00011  -0.00004  -0.00035   0.00051
 180        5PY         0.00118  -0.00082   0.00035   0.00288  -0.00016
 181        5PZ         0.00015   0.00002  -0.00138   0.00049  -0.00025
 182        6D 0       -0.00001   0.00066   0.00008   0.00020  -0.00017
 183        6D+1       -0.00001   0.00008   0.00009   0.00003   0.00004
 184        6D-1        0.00002  -0.00026  -0.00001  -0.00009  -0.00001
 185        6D+2       -0.00013   0.00088   0.00011   0.00034   0.00022
 186        6D-2       -0.00011   0.00071   0.00007   0.00028   0.00014
 187 22  H  1S         -0.00024  -0.00040  -0.00033  -0.00035   0.00002
 188        2S          0.00009  -0.00064  -0.00040   0.00030  -0.00025
 189        3PX         0.00007  -0.00006  -0.00007  -0.00003   0.00009
 190        3PY         0.00002  -0.00000   0.00000  -0.00006  -0.00005
 191        3PZ        -0.00002  -0.00016  -0.00002  -0.00002   0.00001
 192 23  H  1S          0.00015  -0.00030  -0.00007  -0.00057  -0.00008
 193        2S          0.00064  -0.00050  -0.00004  -0.00001   0.00013
 194        3PX        -0.00004   0.00015   0.00002   0.00006   0.00003
 195        3PY        -0.00006   0.00004  -0.00001   0.00000   0.00012
 196        3PZ        -0.00001  -0.00000   0.00010  -0.00001   0.00002
 197 24  H  1S         -0.00024  -0.00044   0.00019  -0.00039   0.00005
 198        2S          0.00009  -0.00070   0.00033   0.00024  -0.00016
 199        3PX         0.00006  -0.00007   0.00006  -0.00004   0.00011
 200        3PY         0.00001  -0.00004  -0.00001  -0.00006  -0.00008
 201        3PZ         0.00003   0.00015   0.00001   0.00000  -0.00003
 202 25  C  1S          0.00001   0.00121  -0.00088   0.00232  -0.04227
 203        2S          0.00066  -0.00087   0.00099  -0.00073  -0.00219
 204        3S         -0.00626   0.01090  -0.01131   0.01195   0.00408
 205        4PX        -0.00003  -0.00002   0.00008   0.00015   0.00011
 206        4PY        -0.00009  -0.00019  -0.00011  -0.00004   0.00016
 207        4PZ         0.00012  -0.00009  -0.00010   0.00014   0.00017
 208        5PX         0.00271  -0.00200   0.00200  -0.00230  -0.00149
 209        5PY        -0.00115  -0.00140  -0.00505   0.00242   0.00049
 210        5PZ         0.00154  -0.00555   0.00150  -0.00124  -0.00121
 211        6D 0       -0.00002  -0.00052  -0.00025   0.00004   0.00006
 212        6D+1       -0.00005  -0.00033  -0.00013  -0.00023   0.00011
 213        6D-1        0.00041  -0.00062   0.00044  -0.00036   0.00012
 214        6D+2       -0.00017   0.00011  -0.00060   0.00043   0.00013
 215        6D-2        0.00004  -0.00024  -0.00022   0.00029  -0.00000
 216 26  H  1S          0.00074  -0.00056   0.00051  -0.00084  -0.00010
 217        2S         -0.00017   0.00041  -0.00066  -0.00017   0.00013
 218        3PX        -0.00007   0.00003  -0.00004  -0.00000   0.00016
 219        3PY         0.00010  -0.00009   0.00010  -0.00010   0.00019
 220        3PZ        -0.00013   0.00013  -0.00013   0.00012   0.00003
[...]
  15         O                -0.797795          1.227374
  16         O                -0.717238          1.345636
  17         O                -0.717215          1.345545
  18         O                -0.717204          1.345245
  19         O                -0.615122          1.280812
  20         O                -0.605843          1.330447
  21         O                -0.605836          1.330441
  22         O                -0.605633          1.330806
  23         O                -0.597681          1.367070
  24         O                -0.597652          1.367075
  25         O                -0.492165          1.306922
  26         O                -0.492161          1.306862
  27         O                -0.492083          1.306973
  28         O                -0.452339          1.039670
  29         O                -0.395845          0.981235
  30         O                -0.395787          0.981278
  31         O                -0.395775          0.981301
  32         O                -0.395549          0.984753
  33         O                -0.395385          0.984304
  34         O                -0.395379          0.984284
  35         O                -0.369409          1.325945
  36         O                -0.339471          1.077825
  37         O                -0.339464          1.077789
  38         O                -0.339248          1.077749
  39         O                -0.339042          1.000511
  40         O                -0.339033          1.000475
  41         O                -0.320024          1.145622
  42         O                -0.320012          1.145700
  43         O                -0.319704          1.147009
  44         O                -0.311413          1.075410
  45         O                -0.311128          1.076049
  46         O                -0.311116          1.076091
  47         O                -0.278417          1.315717
  48         O                -0.278358          1.315828
  49         O                -0.265850          1.301831
  50         O                -0.265799          1.301754
  51         O                -0.265783          1.301760
  52         O                -0.240301          1.415588
  53         O                -0.240269          1.415591
  54         O                -0.240234          1.415471
  55         V                 0.019785          0.799638
  56         V                 0.054564          0.818904
  57         V                 0.054569          0.818702
  58         V                 0.054571          0.818733
  59         V                 0.061956          0.834811
  60         V                 0.061992          0.834540
  61         V                 0.061993          0.834537
  62         V                 0.095459          0.785965
  63         V                 0.095472          0.786036
  64         V                 0.100303          1.074871
  65         V                 0.111246          0.822885
  66         V                 0.111247          0.822874
  67         V                 0.111342          0.821731
  68         V                 0.121719          0.963639
  69         V                 0.121735          0.963550
  70         V                 0.121806          0.964164
  71         V                 0.130671          1.207566
  72         V                 0.130690          1.207331
  73         V                 0.138533          1.088554
  74         V                 0.138541          1.088402
  75         V                 0.138580          1.090836
  76         V                 0.150735          1.036983
  77         V                 0.165649          1.008151
  78         V                 0.165882          1.009733
  79         V                 0.165912          1.009735
  80         V                 0.187359          1.369468
  81         V                 0.187539          1.370949
  82         V                 0.187545          1.370967
  83         V                 0.207844          1.508924
  84         V                 0.207889          1.509163
  85         V                 0.215287          1.622252
  86         V                 0.215315          1.622058
  87         V                 0.215594          1.619090
  88         V                 0.225469          1.224297
  89         V                 0.225472          1.224361
  90         V                 0.225733          1.224652
  91         V                 0.248151          1.946007
  92         V                 0.260183          1.555571
  93         V                 0.260199          1.555620
  94         V                 0.260578          1.562178
  95         V                 0.383713          1.609160
  96         V                 0.383738          1.609074
  97         V                 0.384054          1.609793
  98         V                 0.385548          1.734988
  99         V                 0.385940          1.736394
 100         V                 0.385964          1.736473
 101         V                 0.393937          1.236025
 102         V                 0.393956          1.236041
 103         V                 0.403450          1.523806
 104         V                 0.460712          1.637912
 105         V                 0.460921          1.635716
 106         V                 0.460948          1.635650
 107         V                 0.514817          2.393088
 108         V                 0.514956          2.396350
 109         V                 0.514961          2.396432
 110         V                 0.531974          1.946207
 111         V                 0.531986          1.946278
 112         V                 0.534402          2.024510
 113         V                 0.534573          2.022380
 114         V                 0.534578          2.022463
 115         V                 0.557611          2.982020
 116         V                 0.577138          1.730188
 117         V                 0.577350          1.732045
 118         V                 0.577381          1.732116
 119         V                 0.590319          2.273377
 120         V                 0.590342          2.272900
 121         V                 0.590348          2.272807
 122         V                 0.597893          1.873706
 123         V                 0.597981          1.875424
 124         V                 0.597988          1.875601
 125         V                 0.610722          2.119743
 126         V                 0.610731          2.119845
 127         V                 0.610962          2.119154
 128         V                 0.615164          1.960569
 129         V                 0.615177          1.959303
 130         V                 0.615184          1.959224
 131         V                 0.623515          1.961208
 132         V                 0.623536          1.961367
 133         V                 0.646450          2.031278
 134         V                 0.646454          2.031098
 135         V                 0.646650          2.057706
 136         V                 0.646739          2.341000
 137         V                 0.647229          1.835294
 138         V                 0.647256          1.835128
 139         V                 0.679658          2.015408
 140         V                 0.679671          2.015441
 141         V                 0.687131          2.625810
 142         V                 0.696444          1.970605
 143         V                 0.696468          1.970748
 144         V                 0.696645          1.965061
 145         V                 0.704452          2.081588
 146         V                 0.704456          2.081884
 147         V                 0.704601          2.086834
 148         V                 0.710661          2.165133
 149         V                 0.720924          2.037824
 150         V                 0.720945          2.037534
 151         V                 0.720966          2.036576
 152         V                 0.787611          1.899350
 153         V                 0.787685          1.899391
 154         V                 0.788477          1.900642
 155         V                 0.805459          1.878425
 156         V                 0.843486          1.780748
 157         V                 0.843540          1.780726
 158         V                 0.937976          1.986190
 159         V                 0.938369          1.986512
 160         V                 0.938384          1.986501
 161         V                 0.992577          1.796982
 162         V                 0.997031          2.115368
 163         V                 0.997590          2.117022
 164         V                 0.997616          2.117041
 165         V                 1.085844          2.018882
 166         V                 1.086179          2.019234
 167         V                 1.086239          2.019293
 168         V                 1.159637          2.058588
 169         V                 1.159653          2.058606
 170         V                 1.201742          2.244862
 171         V                 1.202165          2.245161
 172         V                 1.202197          2.245190
 173         V                 1.256657          2.188709
 174         V                 1.256822          2.183330
 175         V                 1.256859          2.183406
 176         V                 1.259508          2.333271
 177         V                 1.273330          2.174136
 178         V                 1.273731          2.174438
 179         V                 1.273758          2.174501
 180         V                 1.282922          2.348497
 181         V                 1.282947          2.348590
 182         V                 1.283347          2.344477
 183         V                 1.335511          2.230064
 184         V                 1.335570          2.230121
 185         V                 1.352402          2.048477
 186         V                 1.352430          2.048507
 187         V                 1.352436          2.048519
 188         V                 1.357694          2.030663
 189         V                 1.376985          2.606339
 190         V                 1.377044          2.606662
 191         V                 1.377992          2.612962
 192         V                 1.433207          2.490816
 193         V                 1.433235          2.490533
 194         V                 1.434355          2.487132
 195         V                 1.464226          2.259158
 196         V                 1.464692          2.259043
 197         V                 1.464735          2.259188
 198         V                 1.497627          2.709048
 199         V                 1.497659          2.708839
 200         V                 1.498031          2.708485
 201         V                 1.511746          2.719742
 202         V                 1.511768          2.719679
 203         V                 1.511949          2.719381
 204         V                 1.521564          2.517637
 205         V                 1.533603          2.632974
 206         V                 1.533649          2.633200
 207         V                 1.544511          2.668723
 208         V                 1.562209          2.698643
 209         V                 1.562700          2.698712
 210         V                 1.562751          2.698977
 211         V                 1.588510          2.560117
 212         V                 1.588515          2.560143
 213         V                 1.588575          2.559858
 214         V                 1.606313          2.695034
 215         V                 1.606326          2.695056
 216         V                 1.613095          2.787472
 217         V                 1.613129          2.787586
 218         V                 1.613550          2.787011
 219         V                 1.648180          2.671292
 220         V                 1.648214          2.671686
 221         V                 1.656811          2.834573
 222         V                 1.669981          2.637696
 223         V                 1.670045          2.641054
 224         V                 1.670104          2.640832
 225         V                 1.687179          2.905846
 226         V                 1.687208          2.905859
 227         V                 1.687446          2.914144
 228         V                 1.728102          2.839993
 229         V                 1.728993          2.832860
 230         V                 1.729016          2.832088
 231         V                 1.737273          2.981941
 232         V                 1.737402          2.999417
 233         V                 1.737448          2.999714
 234         V                 1.738658          2.901759
 235         V                 1.738706          2.901882
 236         V                 1.760987          2.941431
 237         V                 1.764633          2.846344
 238         V                 1.764672          2.846333
 239         V                 1.764681          2.846420
 240         V                 1.766516          2.878180
 241         V                 1.766581          2.878085
 242         V                 1.828245          2.667477
 243         V                 1.861055          2.945505
 244         V                 1.861454          2.944415
 245         V                 1.861499          2.944447
 246         V                 1.899301          3.127455
 247         V                 1.899742          3.128285
 248         V                 1.899802          3.128412
 249         V                 1.928255          2.813410
 250         V                 1.928292          2.813515
 251         V                 1.929212          2.816873
 252         V                 1.933446          2.952161
 253         V                 1.933469          2.952831
 254         V                 1.933649          2.976263
 255         V                 1.934411          3.027714
 256         V                 1.977709          3.038743
 257         V                 1.977733          3.038814
 258         V                 1.978020          3.037627
 259         V                 2.007552          3.008021
 260         V                 2.007607          3.007949
 261         V                 2.007637          3.009298
 262         V                 2.040918          2.964094
 263         V                 2.072103          2.896696
 264         V                 2.072111          2.896717
 265         V                 2.108274          3.129569
 266         V                 2.108470          3.133237
 267         V                 2.108509          3.133431
 268         V                 2.145328          3.548610
 269         V                 2.145375          3.548877
 270         V                 2.145533          3.548010
 271         V                 2.191568          3.294392
 272         V                 2.191603          3.294419
 273         V                 2.191809          3.293931
 274         V                 2.208155          3.269070
 275         V                 2.208161          3.269160
 276         V                 2.209201          3.272732
 277         V                 2.275119          3.399858
 278         V                 2.275145          3.399802
 279         V                 2.312265          3.816643
 280         V                 2.312339          3.817809
 281         V                 2.313922          3.542565
 282         V                 2.314309          3.544256
 283         V                 2.314370          3.543858
 284         V                 2.327533          3.814873
 285         V                 2.327551          3.815205
 286         V                 2.327617          3.816631
 287         V                 2.348636          4.032286
 288         V                 2.376983          4.062715
 289         V                 2.376993          4.062738
 290         V                 2.378416          3.748049
 291         V                 2.378485          3.748074
 292         V                 2.379780          3.751841
 293         V                 2.389825          4.180108
 294         V                 2.391595          3.980861
 295         V                 2.391603          3.980347
 296         V                 2.391876          3.993067
 297         V                 2.428362          3.946152
 298         V                 2.428756          3.956191
 299         V                 2.428792          3.956606
 300         V                 2.430175          4.233181
 301         V                 2.430264          4.225050
 302         V                 2.430290          4.224585
 303         V                 2.504117          3.676866
 304         V                 2.504252          3.676902
 305         V                 2.540705          4.222103
 306         V                 2.541144          4.223888
 307         V                 2.541190          4.223870
 308         V                 2.543742          4.262831
 309         V                 2.543923          4.272612
 310         V                 2.544003          4.246506
 311         V                 2.545956          3.781642
 312         V                 2.696879          4.043005
 313         V                 2.696955          4.042947
 314         V                 2.734796          4.260075
 315         V                 2.734806          4.260037
 316         V                 2.735667          4.260785
 Total kinetic energy from orbitals= 5.429217213740D+02
 No NMR shielding tensors so no spin-rotation constants.
 Leave Link  601 at Sat Jul  4 23:09:36 2020, MaxMem= 16642998272 cpu:        20.7
 (Enter /home/fuchs/agschreiner/public/bin/gaussian09-E.01/g09/l9999.exe)

 Test job not archived.
 1\1\GINC-NODE24-014\SP\RPBEPBE\CC-pVDZ\C14H24\SCHWAN\04-Jul-2020\0\\#p
  cc-pVDZ pbepbe empiricaldispersion=gd3bj scf=(xqc,maxcycle=250) int=(
 grid=ultrafine,acc2E=11) iop(6/7=3) gfinput nosymm\\opt\\0,1\C,0,-4.13
 797797,0.5621563,1.33573516\H,0,-4.52697738,-0.0486145,2.18060157\H,0,
 -4.51341114,1.59822031,1.48974443\C,0,-4.68191258,0.00704366,0.0017367
 \C,0,-6.21291801,0.01863278,0.00047789\H,0,-6.61477344,-0.37904,-0.954
 65486\H,0,-6.61788884,-0.60487921,0.8245939\H,0,-6.60480743,1.04887824
 ,0.13058308\C,0,-4.13342253,0.87811956,-1.14894812\H,0,-4.51902744,0.4
 9818966,-2.12109222\H,0,-4.50903769,1.91986481,-1.04022436\C,0,-2.5902
 2965,0.88343017,-1.1705252\C,0,-2.06827277,1.7521325,-2.31845017\H,0,-
 2.42422267,1.37406611,-3.2994212\H,0,-0.95837108,1.76017845,-2.3412098
 2\H,0,-2.4122808,2.80219157,-2.21383233\C,0,-2.10143046,-0.57145454,-1
 .32929762\H,0,-2.44777239,-0.97809775,-2.30542915\H,0,-0.98941529,-0.5
 8931225,-1.35287911\C,0,-2.60891172,-1.47153411,-0.18280014\C,0,-2.104
 31724,-2.90586848,-0.36368259\H,0,-2.45820116,-3.3364549,-1.32351101\H
 ,0,-0.99469643,-2.94187441,-0.36506473\H,0,-2.46338715,-3.56225905,0.4
 5615683\C,0,-2.10618184,-0.88759749,1.15421795\H,0,-2.45601896,-1.5254
 8256,1.99613851\H,0,-0.99430962,-0.91249238,1.17577761\C,0,-2.59495474
 ,0.56120679,1.36299688\C,0,-2.07675195,1.11577547,2.6929929\H,0,-2.422
 7445,2.15814761,2.8532452\H,0,-2.43353154,0.50413335,3.54769695\H,0,-0
 .96691944,1.11959843,2.71929864\C,0,-2.08769715,1.4208981,0.1861579\H,
 0,-0.97551705,1.43811036,0.19105575\H,0,-2.42372676,2.47324436,0.31948
 364\C,0,-4.15184775,-1.43144604,-0.18045678\H,0,-4.53786002,-1.8533043
 3,-1.13501534\H,0,-4.54079825,-2.07893037,0.63660822\\Version=ES64L-G0
 9RevE.01\HF=-547.2926081\RMSD=6.924e-09\Dipole=0.0010963,0.0000118,-0.
 0000532\Quadrupole=-0.0155351,0.0079179,0.0076171,-0.0005056,-0.000817
 7,-0.0003208\PG=C01 [X(C14H24)]\\@


 FRICTION IS A DRAG,
 AND ENTROPY AIN'T WHAT IT USED TO BE.
 Job cpu time:       0 days  0 hours 16 minutes 44.3 seconds.
 File lengths (MBytes):  RWF=     72 Int=      0 D2E=      0 Chk=      6 Scr=      1
 Normal termination of Gaussian 09 at Sat Jul  4 23:09:37 2020.
