 Entering Gaussian System, Link 0=/home/fuchs/agschreiner/public/bin/gaussian16-C.01/g16/g16
 Input=cluster.com
 Output=cluster.log
 Initial command:
 /home/fuchs/agschreiner/public/bin/gaussian09-E.01/g09/l1.exe "/scratch/fuchs/giessen/schwan/promotion/dimer_paper/bondshare/AdMe/substituent/Gau-3800.inp" -scrdir="/scratch/fuchs/giessen/schwan/promotion/dimer_paper/bondshare/AdMe/substituent/"
 Entering Link 1 = /home/fuchs/agschreiner/public/bin/gaussian09-E.01/g09/l1.exe PID=      3801.
  
 Copyright (c) 1988,1990,1992,1993,1995,1998,2003,2009,2015,
            Gaussian, Inc.  All Rights Reserved.
  
 This is part of the Gaussian(R) 09 program.  It is based on
 the Gaussian(R) 03 system (copyright 2003, Gaussian, Inc.),
 the Gaussian(R) 98 system (copyright 1998, Gaussian, Inc.),
 the Gaussian(R) 94 system (copyright 1995, Gaussian, Inc.),
 the Gaussian 92(TM) system (copyright 1992, Gaussian, Inc.),
 the Gaussian 90(TM) system (copyright 1990, Gaussian, Inc.),
 the Gaussian 88(TM) system (copyright 1988, Gaussian, Inc.),
 the Gaussian 86(TM) system (copyright 1986, Carnegie Mellon
 University), and the Gaussian 82(TM) system (copyright 1983,
 Carnegie Mellon University). Gaussian is a federally registered
 trademark of Gaussian, Inc.
  
 This software contains proprietary and confidential information,
 including trade secrets, belonging to Gaussian, Inc.
  
 This software is provided under written license and may be
 used, copied, transmitted, or stored only in accord with that
 written license.
  
 The following legend is applicable only to US Government
 contracts under FAR:
  
                    RESTRICTED RIGHTS LEGEND
  
 Use, reproduction and disclosure by the US Government is
 subject to restrictions as set forth in subparagraphs (a)
 and (c) of the Commercial Computer Software - Restricted
 Rights clause in FAR 52.227-19.
  
 Gaussian, Inc.
 340 Quinnipiac St., Bldg. 40, Wallingford CT 06492
  
  
 ---------------------------------------------------------------
 Warning -- This program may not be used in any manner that
 competes with the business of Gaussian, Inc. or will provide
 assistance to any competitor of Gaussian, Inc.  The licensee
 of this program is prohibited from giving any competitor of
 Gaussian, Inc. access to this program.  By using this program,
 the user acknowledges that Gaussian, Inc. is engaged in the
 business of creating and licensing software in the field of
 computational chemistry and represents and warrants to the
 licensee that it is not a competitor of Gaussian, Inc. and that
 it will not use this program in any manner prohibited above.
 ---------------------------------------------------------------
  

 Cite this work as:
 Gaussian 09, Revision E.01,
 M. J. Frisch, G. W. Trucks, H. B. Schlegel, G. E. Scuseria, 
 M. A. Robb, J. R. Cheeseman, G. Scalmani, V. Barone, B. Mennucci, 
 G. A. Petersson, H. Nakatsuji, M. Caricato, X. Li, H. P. Hratchian, 
 A. F. Izmaylov, J. Bloino, G. Zheng, J. L. Sonnenberg, M. Hada, 
 M. Ehara, K. Toyota, R. Fukuda, J. Hasegawa, M. Ishida, T. Nakajima, 
 Y. Honda, O. Kitao, H. Nakai, T. Vreven, J. A. Montgomery, Jr., 
 J. E. Peralta, F. Ogliaro, M. Bearpark, J. J. Heyd, E. Brothers, 
 K. N. Kudin, V. N. Staroverov, T. Keith, R. Kobayashi, J. Normand, 
 K. Raghavachari, A. Rendell, J. C. Burant, S. S. Iyengar, J. Tomasi, 
 M. Cossi, N. Rega, J. M. Millam, M. Klene, J. E. Knox, J. B. Cross, 
 V. Bakken, C. Adamo, J. Jaramillo, R. Gomperts, R. E. Stratmann, 
 O. Yazyev, A. J. Austin, R. Cammi, C. Pomelli, J. W. Ochterski, 
 R. L. Martin, K. Morokuma, V. G. Zakrzewski, G. A. Voth, 
 P. Salvador, J. J. Dannenberg, S. Dapprich, A. D. Daniels, 
 O. Farkas, J. B. Foresman, J. V. Ortiz, J. Cioslowski, 
 and D. J. Fox, Gaussian, Inc., Wallingford CT, 2013.
 
 ******************************************
 Gaussian 09:  ES64L-G09RevE.01 30-Nov-2015
                 3-Jul-2020 
 ******************************************
 %NProcShared=20
 Will use up to   20 processors via shared memory.
 %Mem=124GB
 %Chk=ziel1
 ----------------------------------------------------------------------
 #p cc-pVDZ pbepbe empiricaldispersion=gd3bj scf=(xqc,maxcycle=250) int
 =(grid=ultrafine,acc2E=11) iop(6/7=3) gfinput nosymm
 ----------------------------------------------------------------------
 1/38=1/1;
 2/12=2,15=1,17=6,18=5,40=1/2;
 3/5=16,11=2,16=1,24=10,25=1,30=1,74=1009,75=-5,124=41/1,2,3;
 4//1;
 5/5=2,7=250,8=3,13=1,38=5,87=11/2,8;
 6/7=3,8=2,9=2,10=2,28=1/1;
 99/5=1,9=1/99;
 Leave Link    1 at Fri Jul  3 06:43:49 2020, MaxMem= 16642998272 cpu:         2.1
 (Enter /home/fuchs/agschreiner/public/bin/gaussian09-E.01/g09/l101.exe)
 ---
 opt
 ---
 Symbolic Z-matrix:
 Charge =  0 Multiplicity = 1
 C                    -6.21292   0.01863   0.00048 
 H                    -6.61477  -0.37904  -0.95465 
 H                    -6.61789  -0.60488   0.82459 
 H                    -6.60481   1.04888   0.13058 
 C                    -2.06827   1.75213  -2.31845 
 H                    -2.42422   1.37407  -3.29942 
 H                    -0.95837   1.76018  -2.34121 
 H                    -2.41228   2.80219  -2.21383 
 C                    -2.10432  -2.90587  -0.36368 
 H                    -2.4582   -3.33645  -1.32351 
 H                    -0.9947   -2.94187  -0.36506 
 H                    -2.46339  -3.56226   0.45616 
 C                    -2.07675   1.11578   2.69299 
 H                    -2.42274   2.15815   2.85325 
 H                    -2.43353   0.50413   3.5477 
 H                    -0.96692   1.1196    2.7193 
 C                     6.21285   0.0016    0.01774 
 H                     6.60568   0.07187   1.05342 
 H                     6.61718   0.86049  -0.55738 
 H                     6.6144   -0.92886  -0.43494 
 C                     2.07004  -2.41483   1.61714 
 H                     2.41436  -2.3714    2.6714 
 H                     0.96015  -2.43868   1.6241 
 H                     2.4264   -3.37191   1.18245 
 C                     2.07741   2.62527   1.27307 
 H                     2.4248    2.72507   2.3225 
 H                     0.96758   2.65095   1.28002 
 H                     2.43316   3.51404   0.71144 
 C                     2.10176  -0.19276  -2.91936 
 H                     0.99212  -0.19186  -2.95431 
 H                     2.45508  -1.1259   -3.40547 
 H                     2.46033   0.66387  -3.52727 
 
 NAtoms=     32 NQM=       32 NQMF=       0 NMMI=      0 NMMIF=      0
                NMic=       0 NMicF=      0.
                    Isotopes and Nuclear Properties:
 (Nuclear quadrupole moments (NQMom) in fm**2, nuclear magnetic moments (NMagM)
  in nuclear magnetons)

  Atom         1           2           3           4           5           6           7           8           9          10
 IAtWgt=          12           1           1           1          12           1           1           1          12           1
 AtmWgt=  12.0000000   1.0078250   1.0078250   1.0078250  12.0000000   1.0078250   1.0078250   1.0078250  12.0000000   1.0078250
 NucSpn=           0           1           1           1           0           1           1           1           0           1
 AtZEff=   0.0000000   0.0000000   0.0000000   0.0000000   0.0000000   0.0000000   0.0000000   0.0000000   0.0000000   0.0000000
 NQMom=    0.0000000   0.0000000   0.0000000   0.0000000   0.0000000   0.0000000   0.0000000   0.0000000   0.0000000   0.0000000
 NMagM=    0.0000000   2.7928460   2.7928460   2.7928460   0.0000000   2.7928460   2.7928460   2.7928460   0.0000000   2.7928460
 AtZNuc=   6.0000000   1.0000000   1.0000000   1.0000000   6.0000000   1.0000000   1.0000000   1.0000000   6.0000000   1.0000000

  Atom        11          12          13          14          15          16          17          18          19          20
 IAtWgt=           1           1          12           1           1           1          12           1           1           1
 AtmWgt=   1.0078250   1.0078250  12.0000000   1.0078250   1.0078250   1.0078250  12.0000000   1.0078250   1.0078250   1.0078250
 NucSpn=           1           1           0           1           1           1           0           1           1           1
 AtZEff=   0.0000000   0.0000000   0.0000000   0.0000000   0.0000000   0.0000000   0.0000000   0.0000000   0.0000000   0.0000000
 NQMom=    0.0000000   0.0000000   0.0000000   0.0000000   0.0000000   0.0000000   0.0000000   0.0000000   0.0000000   0.0000000
 NMagM=    2.7928460   2.7928460   0.0000000   2.7928460   2.7928460   2.7928460   0.0000000   2.7928460   2.7928460   2.7928460
 AtZNuc=   1.0000000   1.0000000   6.0000000   1.0000000   1.0000000   1.0000000   6.0000000   1.0000000   1.0000000   1.0000000

  Atom        21          22          23          24          25          26          27          28          29          30
 IAtWgt=          12           1           1           1          12           1           1           1          12           1
 AtmWgt=  12.0000000   1.0078250   1.0078250   1.0078250  12.0000000   1.0078250   1.0078250   1.0078250  12.0000000   1.0078250
 NucSpn=           0           1           1           1           0           1           1           1           0           1
 AtZEff=   0.0000000   0.0000000   0.0000000   0.0000000   0.0000000   0.0000000   0.0000000   0.0000000   0.0000000   0.0000000
 NQMom=    0.0000000   0.0000000   0.0000000   0.0000000   0.0000000   0.0000000   0.0000000   0.0000000   0.0000000   0.0000000
 NMagM=    0.0000000   2.7928460   2.7928460   2.7928460   0.0000000   2.7928460   2.7928460   2.7928460   0.0000000   2.7928460
 AtZNuc=   6.0000000   1.0000000   1.0000000   1.0000000   6.0000000   1.0000000   1.0000000   1.0000000   6.0000000   1.0000000

  Atom        31          32
 IAtWgt=           1           1
 AtmWgt=   1.0078250   1.0078250
 NucSpn=           1           1
 AtZEff=   0.0000000   0.0000000
 NQMom=    0.0000000   0.0000000
 NMagM=    2.7928460   2.7928460
 AtZNuc=   1.0000000   1.0000000
 Leave Link  101 at Fri Jul  3 06:43:49 2020, MaxMem= 16642998272 cpu:         1.5
 (Enter /home/fuchs/agschreiner/public/bin/gaussian09-E.01/g09/l202.exe)
                          Input orientation:                          
 ---------------------------------------------------------------------
 Center     Atomic      Atomic             Coordinates (Angstroms)
 Number     Number       Type             X           Y           Z
 ---------------------------------------------------------------------
      1          6           0       -6.212918    0.018633    0.000478
      2          1           0       -6.614773   -0.379040   -0.954655
      3          1           0       -6.617889   -0.604879    0.824594
      4          1           0       -6.604807    1.048878    0.130583
      5          6           0       -2.068273    1.752133   -2.318450
      6          1           0       -2.424223    1.374066   -3.299421
      7          1           0       -0.958371    1.760178   -2.341210
      8          1           0       -2.412281    2.802192   -2.213832
      9          6           0       -2.104317   -2.905868   -0.363683
     10          1           0       -2.458201   -3.336455   -1.323511
     11          1           0       -0.994696   -2.941874   -0.365065
     12          1           0       -2.463387   -3.562259    0.456157
     13          6           0       -2.076752    1.115775    2.692993
     14          1           0       -2.422745    2.158148    2.853245
     15          1           0       -2.433532    0.504133    3.547697
     16          1           0       -0.966919    1.119598    2.719299
     17          6           0        6.212847    0.001597    0.017736
     18          1           0        6.605681    0.071875    1.053424
     19          1           0        6.617179    0.860490   -0.557380
     20          1           0        6.614405   -0.928858   -0.434939
     21          6           0        2.070044   -2.414829    1.617139
     22          1           0        2.414360   -2.371397    2.671397
     23          1           0        0.960154   -2.438682    1.624097
     24          1           0        2.426398   -3.371914    1.182455
     25          6           0        2.077414    2.625270    1.273073
     26          1           0        2.424799    2.725069    2.322504
     27          1           0        0.967583    2.650945    1.280021
     28          1           0        2.433155    3.514044    0.711444
     29          6           0        2.101764   -0.192757   -2.919357
     30          1           0        0.992118   -0.191857   -2.954310
     31          1           0        2.455076   -1.125905   -3.405466
     32          1           0        2.460327    0.663866   -3.527273
 ---------------------------------------------------------------------
                    Distance matrix (angstroms):
                    1          2          3          4          5
     1  C    0.000000
     2  H    1.109914   0.000000
     3  H    1.109926   1.793527   0.000000
     4  H    1.109915   1.793542   1.793526   0.000000
     5  C    5.055743   5.203124   6.011093   5.203122   0.000000
     6  H    5.203916   5.111949   6.205688   5.417376   1.109927
     7  H    6.010553   6.204327   6.902605   6.204672   1.110164
     8  H    5.205402   5.419106   6.207037   5.113479   1.109915
     9  C    5.056275   5.203684   5.203737   6.011550   5.051672
    10  H    5.206482   5.114631   5.420227   6.208050   5.199584
    11  H    6.010662   6.204918   6.204605   6.902544   5.196343
    12  H    5.204749   5.418236   5.112898   6.206444   6.008104
    13  C    5.055811   6.011110   5.203219   5.203240   5.051691
    14  H    5.203962   6.205685   5.417470   5.112046   5.199705
    15  H    5.205981   6.207572   5.114103   5.419682   6.008544
    16  H    6.010375   6.902326   6.204610   6.204211   5.195382
    17  C   12.425789  12.870053  12.870377  12.860863   8.780608
    18  H   12.861882  13.379691  13.242853  13.278674   9.456758
    19  H   12.869783  13.295819  13.387463  13.241212   8.906933
    20  H   12.869636  13.250795  13.296051  13.378297   9.280313
    21  C    8.783097   9.283567   8.909783   9.458339   7.069519
    22  H    9.342161   9.931918   9.386841   9.974939   7.873758
    23  H    7.754192   8.262664   7.837651   8.462996   6.502152
    24  H    9.355783   9.760498   9.464865  10.110021   7.662523
    25  C    8.783147   9.462704   9.286727   8.897824   5.554109
    26  H    9.344879  10.103917   9.752051   9.441818   6.532439
    27  H    7.754089   8.465620   8.267236   7.824891   4.793045
    28  H    9.352965   9.989845   9.944834   9.386118   5.705037
    29  C    8.814991   8.937157   9.498387   9.308501   4.640355
    30  H    7.790226   7.867557   8.506639   8.292723   3.680951
    31  H    9.383206   9.424779  10.024149   9.965682   5.470410
    32  H    9.385443   9.490178  10.147042   9.782884   4.811839
                    6          7          8          9         10
     6  H    0.000000
     7  H    1.793313   0.000000
     8  H    1.793931   1.793285   0.000000
     9  C    5.199879   5.195748   6.008315   0.000000
    10  H    5.108266   5.409332   6.203045   1.109914   0.000000
    11  H    5.411223   5.100566   6.198531   1.110206   1.793365
    12  H    6.202677   6.198280   6.902006   1.109917   1.793943
    13  C    6.008034   5.197040   5.199376   5.051499   6.008341
    14  H    6.202426   5.411574   5.107854   6.007851   6.901971
    15  H    6.902166   6.199433   6.202962   5.199556   6.203176
    16  H    6.197861   5.100898   5.408879   5.196425   6.198761
    17  C    9.353404   7.751361   9.338954   8.818960   9.387684
    18  H   10.108518   8.461016   9.972624   9.313389   9.970983
    19  H    9.462002   7.834567   9.383239   9.501972  10.028151
    20  H    9.757331   8.259038   9.928053   8.940345   9.428588
    21  C    7.663337   6.501578   7.873048   4.646512   5.477392
    22  H    8.549330   7.319253   8.598136   5.469535   6.374361
    23  H    7.087460   6.085625   7.319138   3.682461   4.602124
    24  H    8.132654   7.085990   8.547933   4.809898   5.490030
    25  C    6.537427   4.798689   5.687458   7.124559   7.928191
    26  H    7.546142   5.841839   6.631865   7.709472   8.595301
    27  H    5.840039   4.197151   4.863473   6.558698   7.373150
    28  H    6.652869   4.888475   5.704580   7.934723   8.660008
    29  C    4.804575   3.675954   5.462974   5.619926   5.763926
    30  H    3.773937   2.826790   4.593753   4.864681   4.944967
    31  H    5.483490   4.594969   6.367189   5.762707   5.775930
    32  H    4.941167   3.781024   5.480864   6.602067   6.712009
                   11         12         13         14         15
    11  H    0.000000
    12  H    1.793414   0.000000
    13  C    5.194909   5.199705   0.000000
    14  H    6.197343   6.202478   1.109924   0.000000
    15  H    5.408782   5.108234   1.109917   1.793918   0.000000
    16  H    5.099964   5.411194   1.110151   1.793308   1.793319
    17  C    7.794822   9.389905   8.781563   9.341534   9.352702
    18  H    8.298225   9.788343   8.897334   9.439511   9.386992
    19  H    8.510911  10.151091   9.285177   9.748666   9.944546
    20  H    7.871184   9.493954   9.460480  10.100090   9.988994
    21  C    3.687756   4.818348   5.551446   6.528800   5.703472
    22  H    4.600784   5.487974   5.686029   6.629285   5.704264
    23  H    2.833974   3.787762   4.795780   5.838292   4.886461
    24  H    3.779370   4.947094   6.534482   7.542368   6.651093
    25  C    6.566160   7.718273   4.642396   4.792345   5.479212
    26  H    7.143544   8.179738   4.794899   4.909355   5.480605
    27  H    6.151137   7.145224   3.690692   3.769908   4.617222
    28  H    7.388364   8.609028   5.478822   5.477730   6.386590
    29  C    4.865195   6.602139   7.118337   7.702004   7.929524
    30  H    4.267812   5.910280   6.558955   7.135229   7.382111
    31  H    4.943958   6.711128   7.921730   8.587759   8.654593
    32  H    5.910847   7.613857   7.712394   8.172409   8.604102
                   16         17         18         19         20
    16  H    0.000000
    17  C    7.752252   0.000000
    18  H    7.824138   1.109913   0.000000
    19  H    8.265730   1.109927   1.793526   0.000000
    20  H    8.462970   1.109914   1.793534   1.793534   0.000000
    21  C    4.788537   5.055692   5.203217   6.011046   5.202917
    22  H    4.860288   5.205912   5.114155   6.207558   5.419467
    23  H    4.192188   6.010503   6.204880   6.902558   6.204011
    24  H    5.835253   5.203301   5.416894   6.205071   5.111153
    25  C    3.691420   5.055822   5.203198   5.203313   6.011107
    26  H    3.773425   5.203706   5.111730   5.417234   6.205438
    27  H    2.856369   6.010425   6.204120   6.204813   6.902367
    28  H    4.617939   5.206206   5.419912   5.114422   6.207770
    29  C    6.552368   5.056213   6.011513   5.203579   5.203662
    30  H    6.143905   6.010532   6.902433   6.204355   6.204878
    31  H    7.366484   5.206766   6.208373   5.420374   5.114966
    32  H    7.139564   5.204526   6.206223   5.112567   5.418086
                   21         22         23         24         25
    21  C    0.000000
    22  H    1.109910   0.000000
    23  H    1.110169   1.793343   0.000000
    24  H    1.109933   1.793915   1.793277   0.000000
    25  C    5.051834   5.199569   5.197605   6.008013   0.000000
    26  H    5.200187   5.108405   5.412697   6.202655   1.109928
    27  H    5.195300   5.408606   5.101250   6.197782   1.110150
    28  H    6.008633   6.203240   6.199808   6.902052   1.109909
    29  C    5.051575   6.008388   5.195231   5.199739   5.051568
    30  H    5.196313   6.198528   5.100103   5.411353   5.194693
    31  H    5.199629   6.203320   5.408760   5.108268   6.008550
    32  H    6.007966   6.902061   6.197817   6.202436   5.199716
                   26         27         28         29         30
    26  H    0.000000
    27  H    1.793249   0.000000
    28  H    1.793896   1.793355   0.000000
    29  C    6.007925   5.196902   5.199318   0.000000
    30  H    6.197241   5.100165   5.408146   1.110197   0.000000
    31  H    6.902214   6.199276   6.203108   1.109908   1.793386
    32  H    6.202395   5.411732   5.107932   1.109925   1.793373
                   31         32
    31  H    0.000000
    32  H    1.793919   0.000000
 Symmetry turned off by external request.
 Stoichiometry    C8H24
 Framework group  C1[X(C8H24)]
 Deg. of freedom    90
 Full point group                 C1      NOp   1
 Rotational constants (GHZ):      0.6114805      0.2534558      0.2534516
 Leave Link  202 at Fri Jul  3 06:43:49 2020, MaxMem= 16642998272 cpu:         0.2
 (Enter /home/fuchs/agschreiner/public/bin/gaussian09-E.01/g09/l301.exe)
 Standard basis: CC-pVDZ (5D, 7F)
 Ernie: Thresh=  0.10000D-02 Tol=  0.10000D-05 Strict=F.
 Ernie:  16 primitive shells out of 296 were deleted.
 AO basis set in the form of general basis input (Overlap normalization):
      1 0
 S   7 1.00       0.000000000000
      0.6665000000D+04  0.6935163173D-03
      0.1000000000D+04  0.5341502433D-02
      0.2280000000D+03  0.2713667141D-01
      0.6471000000D+02  0.1019923853D+00
      0.2106000000D+02  0.2755086365D+00
      0.7495000000D+01  0.4510864331D+00
      0.2797000000D+01  0.2875657448D+00
 S   7 1.00       0.000000000000
      0.6665000000D+04  0.7733547404D-05
      0.2280000000D+03  0.2780721367D-03
      0.6471000000D+02 -0.2578756542D-02
      0.2106000000D+02 -0.8950876838D-02
      0.7495000000D+01 -0.1060588547D+00
      0.2797000000D+01 -0.1315176856D+00
      0.5215000000D+00  0.1099486598D+01
 S   1 1.00       0.000000000000
      0.1596000000D+00  0.1000000000D+01
 P   3 1.00       0.000000000000
      0.9439000000D+01  0.5697925159D-01
      0.2002000000D+01  0.3132072115D+00
      0.5456000000D+00  0.7603767417D+00
 P   1 1.00       0.000000000000
      0.1517000000D+00  0.1000000000D+01
 D   1 1.00       0.000000000000
      0.5500000000D+00  0.1000000000D+01
 ****
      2 0
 S   3 1.00       0.000000000000
      0.1301000000D+02  0.3349872639D-01
      0.1962000000D+01  0.2348008012D+00
      0.4446000000D+00  0.8136829579D+00
 S   1 1.00       0.000000000000
      0.1220000000D+00  0.1000000000D+01
 P   1 1.00       0.000000000000
      0.7270000000D+00  0.1000000000D+01
 ****
      3 0
 S   3 1.00       0.000000000000
      0.1301000000D+02  0.3349872639D-01
      0.1962000000D+01  0.2348008012D+00
      0.4446000000D+00  0.8136829579D+00
 S   1 1.00       0.000000000000
      0.1220000000D+00  0.1000000000D+01
 P   1 1.00       0.000000000000
      0.7270000000D+00  0.1000000000D+01
 ****
      4 0
 S   3 1.00       0.000000000000
      0.1301000000D+02  0.3349872639D-01
      0.1962000000D+01  0.2348008012D+00
      0.4446000000D+00  0.8136829579D+00
 S   1 1.00       0.000000000000
      0.1220000000D+00  0.1000000000D+01
 P   1 1.00       0.000000000000
      0.7270000000D+00  0.1000000000D+01
 ****
      5 0
 S   7 1.00       0.000000000000
      0.6665000000D+04  0.6935163173D-03
      0.1000000000D+04  0.5341502433D-02
      0.2280000000D+03  0.2713667141D-01
      0.6471000000D+02  0.1019923853D+00
      0.2106000000D+02  0.2755086365D+00
      0.7495000000D+01  0.4510864331D+00
      0.2797000000D+01  0.2875657448D+00
 S   7 1.00       0.000000000000
      0.6665000000D+04  0.7733547404D-05
      0.2280000000D+03  0.2780721367D-03
      0.6471000000D+02 -0.2578756542D-02
      0.2106000000D+02 -0.8950876838D-02
      0.7495000000D+01 -0.1060588547D+00
      0.2797000000D+01 -0.1315176856D+00
      0.5215000000D+00  0.1099486598D+01
 S   1 1.00       0.000000000000
      0.1596000000D+00  0.1000000000D+01
 P   3 1.00       0.000000000000
      0.9439000000D+01  0.5697925159D-01
      0.2002000000D+01  0.3132072115D+00
      0.5456000000D+00  0.7603767417D+00
 P   1 1.00       0.000000000000
      0.1517000000D+00  0.1000000000D+01
 D   1 1.00       0.000000000000
      0.5500000000D+00  0.1000000000D+01
 ****
      6 0
 S   3 1.00       0.000000000000
      0.1301000000D+02  0.3349872639D-01
      0.1962000000D+01  0.2348008012D+00
      0.4446000000D+00  0.8136829579D+00
 S   1 1.00       0.000000000000
      0.1220000000D+00  0.1000000000D+01
 P   1 1.00       0.000000000000
      0.7270000000D+00  0.1000000000D+01
 ****
      7 0
 S   3 1.00       0.000000000000
      0.1301000000D+02  0.3349872639D-01
      0.1962000000D+01  0.2348008012D+00
      0.4446000000D+00  0.8136829579D+00
 S   1 1.00       0.000000000000
      0.1220000000D+00  0.1000000000D+01
 P   1 1.00       0.000000000000
      0.7270000000D+00  0.1000000000D+01
 ****
      8 0
 S   3 1.00       0.000000000000
      0.1301000000D+02  0.3349872639D-01
      0.1962000000D+01  0.2348008012D+00
      0.4446000000D+00  0.8136829579D+00
 S   1 1.00       0.000000000000
      0.1220000000D+00  0.1000000000D+01
 P   1 1.00       0.000000000000
      0.7270000000D+00  0.1000000000D+01
 ****
      9 0
 S   7 1.00       0.000000000000
      0.6665000000D+04  0.6935163173D-03
      0.1000000000D+04  0.5341502433D-02
      0.2280000000D+03  0.2713667141D-01
      0.6471000000D+02  0.1019923853D+00
      0.2106000000D+02  0.2755086365D+00
      0.7495000000D+01  0.4510864331D+00
      0.2797000000D+01  0.2875657448D+00
 S   7 1.00       0.000000000000
      0.6665000000D+04  0.7733547404D-05
      0.2280000000D+03  0.2780721367D-03
      0.6471000000D+02 -0.2578756542D-02
      0.2106000000D+02 -0.8950876838D-02
      0.7495000000D+01 -0.1060588547D+00
      0.2797000000D+01 -0.1315176856D+00
      0.5215000000D+00  0.1099486598D+01
 S   1 1.00       0.000000000000
      0.1596000000D+00  0.1000000000D+01
 P   3 1.00       0.000000000000
      0.9439000000D+01  0.5697925159D-01
      0.2002000000D+01  0.3132072115D+00
      0.5456000000D+00  0.7603767417D+00
 P   1 1.00       0.000000000000
      0.1517000000D+00  0.1000000000D+01
 D   1 1.00       0.000000000000
      0.5500000000D+00  0.1000000000D+01
 ****
     10 0
 S   3 1.00       0.000000000000
      0.1301000000D+02  0.3349872639D-01
      0.1962000000D+01  0.2348008012D+00
      0.4446000000D+00  0.8136829579D+00
 S   1 1.00       0.000000000000
      0.1220000000D+00  0.1000000000D+01
 P   1 1.00       0.000000000000
      0.7270000000D+00  0.1000000000D+01
 ****
     11 0
 S   3 1.00       0.000000000000
      0.1301000000D+02  0.3349872639D-01
      0.1962000000D+01  0.2348008012D+00
      0.4446000000D+00  0.8136829579D+00
 S   1 1.00       0.000000000000
      0.1220000000D+00  0.1000000000D+01
 P   1 1.00       0.000000000000
      0.7270000000D+00  0.1000000000D+01
 ****
     12 0
 S   3 1.00       0.000000000000
      0.1301000000D+02  0.3349872639D-01
      0.1962000000D+01  0.2348008012D+00
      0.4446000000D+00  0.8136829579D+00
 S   1 1.00       0.000000000000
      0.1220000000D+00  0.1000000000D+01
 P   1 1.00       0.000000000000
      0.7270000000D+00  0.1000000000D+01
 ****
     13 0
 S   7 1.00       0.000000000000
      0.6665000000D+04  0.6935163173D-03
      0.1000000000D+04  0.5341502433D-02
      0.2280000000D+03  0.2713667141D-01
      0.6471000000D+02  0.1019923853D+00
      0.2106000000D+02  0.2755086365D+00
      0.7495000000D+01  0.4510864331D+00
      0.2797000000D+01  0.2875657448D+00
 S   7 1.00       0.000000000000
      0.6665000000D+04  0.7733547404D-05
      0.2280000000D+03  0.2780721367D-03
      0.6471000000D+02 -0.2578756542D-02
      0.2106000000D+02 -0.8950876838D-02
      0.7495000000D+01 -0.1060588547D+00
      0.2797000000D+01 -0.1315176856D+00
      0.5215000000D+00  0.1099486598D+01
 S   1 1.00       0.000000000000
      0.1596000000D+00  0.1000000000D+01
 P   3 1.00       0.000000000000
      0.9439000000D+01  0.5697925159D-01
      0.2002000000D+01  0.3132072115D+00
      0.5456000000D+00  0.7603767417D+00
 P   1 1.00       0.000000000000
      0.1517000000D+00  0.1000000000D+01
 D   1 1.00       0.000000000000
      0.5500000000D+00  0.1000000000D+01
 ****
     14 0
 S   3 1.00       0.000000000000
      0.1301000000D+02  0.3349872639D-01
      0.1962000000D+01  0.2348008012D+00
      0.4446000000D+00  0.8136829579D+00
 S   1 1.00       0.000000000000
      0.1220000000D+00  0.1000000000D+01
 P   1 1.00       0.000000000000
      0.7270000000D+00  0.1000000000D+01
 ****
     15 0
 S   3 1.00       0.000000000000
      0.1301000000D+02  0.3349872639D-01
      0.1962000000D+01  0.2348008012D+00
      0.4446000000D+00  0.8136829579D+00
 S   1 1.00       0.000000000000
      0.1220000000D+00  0.1000000000D+01
 P   1 1.00       0.000000000000
      0.7270000000D+00  0.1000000000D+01
 ****
     16 0
 S   3 1.00       0.000000000000
      0.1301000000D+02  0.3349872639D-01
      0.1962000000D+01  0.2348008012D+00
      0.4446000000D+00  0.8136829579D+00
 S   1 1.00       0.000000000000
      0.1220000000D+00  0.1000000000D+01
 P   1 1.00       0.000000000000
      0.7270000000D+00  0.1000000000D+01
 ****
     17 0
 S   7 1.00       0.000000000000
      0.6665000000D+04  0.6935163173D-03
      0.1000000000D+04  0.5341502433D-02
      0.2280000000D+03  0.2713667141D-01
      0.6471000000D+02  0.1019923853D+00
      0.2106000000D+02  0.2755086365D+00
      0.7495000000D+01  0.4510864331D+00
      0.2797000000D+01  0.2875657448D+00
 S   7 1.00       0.000000000000
      0.6665000000D+04  0.7733547404D-05
      0.2280000000D+03  0.2780721367D-03
      0.6471000000D+02 -0.2578756542D-02
      0.2106000000D+02 -0.8950876838D-02
      0.7495000000D+01 -0.1060588547D+00
      0.2797000000D+01 -0.1315176856D+00
      0.5215000000D+00  0.1099486598D+01
 S   1 1.00       0.000000000000
      0.1596000000D+00  0.1000000000D+01
 P   3 1.00       0.000000000000
      0.9439000000D+01  0.5697925159D-01
      0.2002000000D+01  0.3132072115D+00
      0.5456000000D+00  0.7603767417D+00
 P   1 1.00       0.000000000000
      0.1517000000D+00  0.1000000000D+01
 D   1 1.00       0.000000000000
      0.5500000000D+00  0.1000000000D+01
 ****
     18 0
 S   3 1.00       0.000000000000
      0.1301000000D+02  0.3349872639D-01
      0.1962000000D+01  0.2348008012D+00
      0.4446000000D+00  0.8136829579D+00
 S   1 1.00       0.000000000000
      0.1220000000D+00  0.1000000000D+01
 P   1 1.00       0.000000000000
      0.7270000000D+00  0.1000000000D+01
 ****
     19 0
 S   3 1.00       0.000000000000
      0.1301000000D+02  0.3349872639D-01
      0.1962000000D+01  0.2348008012D+00
      0.4446000000D+00  0.8136829579D+00
 S   1 1.00       0.000000000000
      0.1220000000D+00  0.1000000000D+01
 P   1 1.00       0.000000000000
      0.7270000000D+00  0.1000000000D+01
 ****
     20 0
 S   3 1.00       0.000000000000
      0.1301000000D+02  0.3349872639D-01
      0.1962000000D+01  0.2348008012D+00
      0.4446000000D+00  0.8136829579D+00
 S   1 1.00       0.000000000000
      0.1220000000D+00  0.1000000000D+01
 P   1 1.00       0.000000000000
      0.7270000000D+00  0.1000000000D+01
 ****
     21 0
 S   7 1.00       0.000000000000
      0.6665000000D+04  0.6935163173D-03
      0.1000000000D+04  0.5341502433D-02
      0.2280000000D+03  0.2713667141D-01
      0.6471000000D+02  0.1019923853D+00
      0.2106000000D+02  0.2755086365D+00
      0.7495000000D+01  0.4510864331D+00
      0.2797000000D+01  0.2875657448D+00
 S   7 1.00       0.000000000000
      0.6665000000D+04  0.7733547404D-05
      0.2280000000D+03  0.2780721367D-03
      0.6471000000D+02 -0.2578756542D-02
      0.2106000000D+02 -0.8950876838D-02
      0.7495000000D+01 -0.1060588547D+00
      0.2797000000D+01 -0.1315176856D+00
      0.5215000000D+00  0.1099486598D+01
 S   1 1.00       0.000000000000
      0.1596000000D+00  0.1000000000D+01
 P   3 1.00       0.000000000000
      0.9439000000D+01  0.5697925159D-01
      0.2002000000D+01  0.3132072115D+00
      0.5456000000D+00  0.7603767417D+00
 P   1 1.00       0.000000000000
      0.1517000000D+00  0.1000000000D+01
 D   1 1.00       0.000000000000
      0.5500000000D+00  0.1000000000D+01
 ****
     22 0
 S   3 1.00       0.000000000000
      0.1301000000D+02  0.3349872639D-01
      0.1962000000D+01  0.2348008012D+00
      0.4446000000D+00  0.8136829579D+00
 S   1 1.00       0.000000000000
      0.1220000000D+00  0.1000000000D+01
 P   1 1.00       0.000000000000
      0.7270000000D+00  0.1000000000D+01
 ****
     23 0
 S   3 1.00       0.000000000000
      0.1301000000D+02  0.3349872639D-01
      0.1962000000D+01  0.2348008012D+00
      0.4446000000D+00  0.8136829579D+00
 S   1 1.00       0.000000000000
      0.1220000000D+00  0.1000000000D+01
 P   1 1.00       0.000000000000
      0.7270000000D+00  0.1000000000D+01
 ****
     24 0
 S   3 1.00       0.000000000000
      0.1301000000D+02  0.3349872639D-01
      0.1962000000D+01  0.2348008012D+00
      0.4446000000D+00  0.8136829579D+00
 S   1 1.00       0.000000000000
      0.1220000000D+00  0.1000000000D+01
 P   1 1.00       0.000000000000
      0.7270000000D+00  0.1000000000D+01
 ****
     25 0
 S   7 1.00       0.000000000000
      0.6665000000D+04  0.6935163173D-03
      0.1000000000D+04  0.5341502433D-02
      0.2280000000D+03  0.2713667141D-01
      0.6471000000D+02  0.1019923853D+00
      0.2106000000D+02  0.2755086365D+00
      0.7495000000D+01  0.4510864331D+00
      0.2797000000D+01  0.2875657448D+00
 S   7 1.00       0.000000000000
      0.6665000000D+04  0.7733547404D-05
      0.2280000000D+03  0.2780721367D-03
      0.6471000000D+02 -0.2578756542D-02
      0.2106000000D+02 -0.8950876838D-02
      0.7495000000D+01 -0.1060588547D+00
      0.2797000000D+01 -0.1315176856D+00
      0.5215000000D+00  0.1099486598D+01
 S   1 1.00       0.000000000000
      0.1596000000D+00  0.1000000000D+01
 P   3 1.00       0.000000000000
      0.9439000000D+01  0.5697925159D-01
      0.2002000000D+01  0.3132072115D+00
      0.5456000000D+00  0.7603767417D+00
 P   1 1.00       0.000000000000
      0.1517000000D+00  0.1000000000D+01
 D   1 1.00       0.000000000000
      0.5500000000D+00  0.1000000000D+01
 ****
     26 0
 S   3 1.00       0.000000000000
      0.1301000000D+02  0.3349872639D-01
      0.1962000000D+01  0.2348008012D+00
      0.4446000000D+00  0.8136829579D+00
 S   1 1.00       0.000000000000
      0.1220000000D+00  0.1000000000D+01
 P   1 1.00       0.000000000000
      0.7270000000D+00  0.1000000000D+01
 ****
     27 0
 S   3 1.00       0.000000000000
      0.1301000000D+02  0.3349872639D-01
      0.1962000000D+01  0.2348008012D+00
      0.4446000000D+00  0.8136829579D+00
 S   1 1.00       0.000000000000
      0.1220000000D+00  0.1000000000D+01
 P   1 1.00       0.000000000000
      0.7270000000D+00  0.1000000000D+01
 ****
     28 0
 S   3 1.00       0.000000000000
      0.1301000000D+02  0.3349872639D-01
      0.1962000000D+01  0.2348008012D+00
      0.4446000000D+00  0.8136829579D+00
 S   1 1.00       0.000000000000
      0.1220000000D+00  0.1000000000D+01
 P   1 1.00       0.000000000000
      0.7270000000D+00  0.1000000000D+01
 ****
     29 0
 S   7 1.00       0.000000000000
      0.6665000000D+04  0.6935163173D-03
      0.1000000000D+04  0.5341502433D-02
      0.2280000000D+03  0.2713667141D-01
      0.6471000000D+02  0.1019923853D+00
      0.2106000000D+02  0.2755086365D+00
      0.7495000000D+01  0.4510864331D+00
      0.2797000000D+01  0.2875657448D+00
 S   7 1.00       0.000000000000
      0.6665000000D+04  0.7733547404D-05
      0.2280000000D+03  0.2780721367D-03
      0.6471000000D+02 -0.2578756542D-02
      0.2106000000D+02 -0.8950876838D-02
      0.7495000000D+01 -0.1060588547D+00
      0.2797000000D+01 -0.1315176856D+00
      0.5215000000D+00  0.1099486598D+01
 S   1 1.00       0.000000000000
      0.1596000000D+00  0.1000000000D+01
 P   3 1.00       0.000000000000
      0.9439000000D+01  0.5697925159D-01
      0.2002000000D+01  0.3132072115D+00
      0.5456000000D+00  0.7603767417D+00
 P   1 1.00       0.000000000000
      0.1517000000D+00  0.1000000000D+01
 D   1 1.00       0.000000000000
      0.5500000000D+00  0.1000000000D+01
 ****
     30 0
 S   3 1.00       0.000000000000
      0.1301000000D+02  0.3349872639D-01
      0.1962000000D+01  0.2348008012D+00
      0.4446000000D+00  0.8136829579D+00
 S   1 1.00       0.000000000000
      0.1220000000D+00  0.1000000000D+01
 P   1 1.00       0.000000000000
      0.7270000000D+00  0.1000000000D+01
 ****
     31 0
 S   3 1.00       0.000000000000
      0.1301000000D+02  0.3349872639D-01
      0.1962000000D+01  0.2348008012D+00
      0.4446000000D+00  0.8136829579D+00
 S   1 1.00       0.000000000000
      0.1220000000D+00  0.1000000000D+01
 P   1 1.00       0.000000000000
      0.7270000000D+00  0.1000000000D+01
 ****
     32 0
 S   3 1.00       0.000000000000
      0.1301000000D+02  0.3349872639D-01
      0.1962000000D+01  0.2348008012D+00
      0.4446000000D+00  0.8136829579D+00
 S   1 1.00       0.000000000000
      0.1220000000D+00  0.1000000000D+01
 P   1 1.00       0.000000000000
      0.7270000000D+00  0.1000000000D+01
 ****

   232 basis functions,   432 primitive gaussians,   240 cartesian basis functions
    36 alpha electrons       36 beta electrons
       nuclear repulsion energy       273.8612732665 Hartrees.
 IExCor= 1009 DFT=T Ex=PBE Corr=PBE ExCW=0 ScaHFX=  0.000000
 ScaDFX=  1.000000  1.000000  1.000000  1.000000 ScalE2=  1.000000  1.000000
 IRadAn=      5 IRanWt=     -1 IRanGd=            0 ICorTp=0 IEmpDi=141
 NAtoms=   32 NActive=   32 NUniq=   32 SFac= 1.00D+00 NAtFMM=   60 NAOKFM=F Big=F
 Integral buffers will be    131072 words long.
 Raffenetti 2 integral format.
 Two-electron integral symmetry is turned off.
 R6Disp:  Grimme-D3(BJ) Dispersion energy=       -0.0096335424 Hartrees.
 Nuclear repulsion after empirical dispersion term =      273.8516397241 Hartrees.
 Leave Link  301 at Fri Jul  3 06:43:49 2020, MaxMem= 16642998272 cpu:         1.3
 (Enter /home/fuchs/agschreiner/public/bin/gaussian09-E.01/g09/l302.exe)
 NPDir=0 NMtPBC=     1 NCelOv=     1 NCel=       1 NClECP=     1 NCelD=      1
         NCelK=      1 NCelE2=     1 NClLst=     1 CellRange=     0.0.
 One-electron integrals computed using PRISM.
 NBasis=   232 RedAO= T EigKep=  2.00D-02  NBF=   232
 NBsUse=   232 1.00D-06 EigRej= -1.00D+00 NBFU=   232
 Precomputing XC quadrature grid using
 IXCGrd= 4 IRadAn=           5 IRanWt=          -1 IRanGd=           0 AccXCQ= 0.00D+00.
 Generated NRdTot=       0 NPtTot=           0 NUsed=           0 NTot=          32
 NSgBfM=   234   234   234   234   234 MxSgAt=    32 MxSgA2=    32.
 Leave Link  302 at Fri Jul  3 06:43:49 2020, MaxMem= 16642998272 cpu:         7.8
 (Enter /home/fuchs/agschreiner/public/bin/gaussian09-E.01/g09/l303.exe)
 DipDrv:  MaxL=1.
 Leave Link  303 at Fri Jul  3 06:43:50 2020, MaxMem= 16642998272 cpu:         0.7
 (Enter /home/fuchs/agschreiner/public/bin/gaussian09-E.01/g09/l401.exe)
 ExpMin= 1.22D-01 ExpMax= 6.67D+03 ExpMxC= 2.28D+02 IAcc=3 IRadAn=         5 AccDes= 0.00D+00
 Harris functional with IExCor= 1009 and IRadAn=       5 diagonalized for initial guess.
 HarFok:  IExCor= 1009 AccDes= 0.00D+00 IRadAn=         5 IDoV= 1 UseB2=F ITyADJ=14
 ICtDFT=  3500011 ScaDFX=  1.000000  1.000000  1.000000  1.000000
 FoFCou: FMM=F IPFlag=           0 FMFlag=      100000 FMFlg1=           0
         NFxFlg=           0 DoJE=T BraDBF=F KetDBF=T FulRan=T
         wScrn=  0.000000 ICntrl=     500 IOpCl=  0 I1Cent=   200000004 NGrid=           0
         NMat0=    1 NMatS0=      1 NMatT0=    0 NMatD0=    1 NMtDS0=    0 NMtDT0=    0
 Symmetry not used in FoFCou.
 Harris En= -318.145223542456    
 JPrj=0 DoOrth=F DoCkMO=F.
 Leave Link  401 at Fri Jul  3 06:43:51 2020, MaxMem= 16642998272 cpu:        17.8
 (Enter /home/fuchs/agschreiner/public/bin/gaussian09-E.01/g09/l502.exe)
 Closed shell SCF:
 Using DIIS extrapolation, IDIIS=  1040.
 Two-electron integral symmetry not used.
 Keep J ints in memory in canonical form, NReq=372466200.
 IVT=      197654 IEndB=      197654 NGot= 16642998272 MDV= 16277530713
 LenX= 16277530713 LenY= 16277472672
 Requested convergence on RMS density matrix=1.00D-08 within 128 cycles.
 Requested convergence on MAX density matrix=1.00D-06.
 Requested convergence on             energy=1.00D-06.
 No special actions if energy rises.
 FoFCou: FMM=F IPFlag=           0 FMFlag=           0 FMFlg1=           0
         NFxFlg=           0 DoJE=F BraDBF=F KetDBF=F FulRan=T
         wScrn=  0.000000 ICntrl=     600 IOpCl=  0 I1Cent=           0 NGrid=           0
         NMat0=    1 NMatS0=  27028 NMatT0=    0 NMatD0=    1 NMtDS0=    0 NMtDT0=    0
 Symmetry not used in FoFCou.
 Integral accuracy reduced to 1.0D-05 until final iterations.

 Cycle   1  Pass 0  IDiag  1:
 E= -317.460193309543    
 DIIS: error= 4.52D-02 at cycle   1 NSaved=   1.
 NSaved= 1 IEnMin= 1 EnMin= -317.460193309543     IErMin= 1 ErrMin= 4.52D-02
 ErrMax= 4.52D-02  0.00D+00 EMaxC= 1.00D-01 BMatC= 2.76D-01 BMatP= 2.76D-01
 IDIUse=3 WtCom= 5.48D-01 WtEn= 4.52D-01
 Coeff-Com:  0.100D+01
 Coeff-En:   0.100D+01
 Coeff:      0.100D+01
 Gap=    -0.223 Goal=   None    Shift=    0.000
 GapD=   -0.223 DampG=0.250 DampE=0.500 DampFc=0.2500 IDamp=-1.
 Damping current iteration by 2.50D-01
 RMSDP=8.15D-03 MaxDP=2.43D-01              OVMax= 8.65D-01

 Cycle   2  Pass 0  IDiag  1:
 E= -317.655586695780     Delta-E=       -0.195393386237 Rises=F Damp=T
 DIIS: error= 1.92D-02 at cycle   2 NSaved=   2.
 NSaved= 2 IEnMin= 2 EnMin= -317.655586695780     IErMin= 2 ErrMin= 1.92D-02
 ErrMax= 1.92D-02  0.00D+00 EMaxC= 1.00D-01 BMatC= 5.16D-02 BMatP= 2.76D-01
 IDIUse=3 WtCom= 8.08D-01 WtEn= 1.92D-01
 Coeff-Com: -0.207D+00 0.121D+01
 Coeff-En:   0.000D+00 0.100D+01
 Coeff:     -0.167D+00 0.117D+01
 Gap=    -0.047 Goal=   None    Shift=    0.000
 RMSDP=5.65D-03 MaxDP=1.78D-01 DE=-1.95D-01 OVMax= 9.61D-01

 Cycle   3  Pass 0  IDiag  1:
 E= -315.991560811867     Delta-E=        1.664025883913 Rises=F Damp=F
 DIIS: error= 5.75D-02 at cycle   3 NSaved=   3.
 NSaved= 3 IEnMin= 2 EnMin= -317.655586695780     IErMin= 2 ErrMin= 1.92D-02
 ErrMax= 5.75D-02  0.00D+00 EMaxC= 1.00D-01 BMatC= 6.00D-01 BMatP= 5.16D-02
 IDIUse=2 WtCom= 0.00D+00 WtEn= 1.00D+00
 Coeff-En:   0.000D+00 0.887D+00 0.113D+00
 Coeff:      0.000D+00 0.887D+00 0.113D+00
 Gap=    -0.094 Goal=   None    Shift=    0.000
 RMSDP=7.08D-03 MaxDP=2.98D-01 DE= 1.66D+00 OVMax= 9.98D-01

 Cycle   4  Pass 0  IDiag  1:
 E= -316.429838923191     Delta-E=       -0.438278111324 Rises=F Damp=F
 DIIS: error= 5.68D-02 at cycle   4 NSaved=   4.
 NSaved= 4 IEnMin= 2 EnMin= -317.655586695780     IErMin= 2 ErrMin= 1.92D-02
 ErrMax= 5.68D-02  0.00D+00 EMaxC= 1.00D-01 BMatC= 4.30D-01 BMatP= 5.16D-02
 IDIUse=2 WtCom= 0.00D+00 WtEn= 1.00D+00
 EnCoef did   100 forward-backward iterations
 Coeff-En:   0.102D-01 0.680D+00 0.153D+00 0.157D+00
 Coeff:      0.102D-01 0.680D+00 0.153D+00 0.157D+00
 Gap=    -0.032 Goal=   None    Shift=    0.000
 RMSDP=6.10D-03 MaxDP=2.86D-01 DE=-4.38D-01 OVMax= 9.78D-01

 Cycle   5  Pass 0  IDiag  1:
 E= -316.394709027611     Delta-E=        0.035129895580 Rises=F Damp=F
 DIIS: error= 4.57D-02 at cycle   5 NSaved=   5.
 NSaved= 5 IEnMin= 2 EnMin= -317.655586695780     IErMin= 2 ErrMin= 1.92D-02
 ErrMax= 4.57D-02  0.00D+00 EMaxC= 1.00D-01 BMatC= 4.23D-01 BMatP= 5.16D-02
 IDIUse=2 WtCom= 0.00D+00 WtEn= 1.00D+00
 EnCoef did     6 forward-backward iterations
 Coeff-En:   0.394D+00 0.395D-03 0.150D+00 0.253D+00 0.203D+00
 Coeff:      0.394D+00 0.395D-03 0.150D+00 0.253D+00 0.203D+00
 Gap=    -0.111 Goal=   None    Shift=    0.000
 RMSDP=7.15D-03 MaxDP=2.91D-01 DE= 3.51D-02 OVMax= 9.92D-01

 Cycle   6  Pass 0  IDiag  1:
 E= -315.453756615036     Delta-E=        0.940952412574 Rises=F Damp=F
 DIIS: error= 7.53D-02 at cycle   6 NSaved=   6.
 NSaved= 6 IEnMin= 2 EnMin= -317.655586695780     IErMin= 2 ErrMin= 1.92D-02
 ErrMax= 7.53D-02  0.00D+00 EMaxC= 1.00D-01 BMatC= 6.69D-01 BMatP= 5.16D-02
 IDIUse=2 WtCom= 0.00D+00 WtEn= 1.00D+00
 EnCoef did   100 forward-backward iterations
 Coeff-En:   0.263D+00 0.219D-01 0.147D+00 0.203D+00 0.242D+00 0.123D+00
 Coeff:      0.263D+00 0.219D-01 0.147D+00 0.203D+00 0.242D+00 0.123D+00
 Gap=    -0.109 Goal=   None    Shift=    0.000
 RMSDP=5.86D-03 MaxDP=2.87D-01 DE= 9.41D-01 OVMax= 1.00D+00

 Problem detected with inexpensive integrals.
 Switching to full accuracy and repeating last cycle.
 Cycle   7  Pass 1  IDiag  1:
 E= -315.453734705358     Delta-E=        0.000021909678 Rises=F Damp=F
 DIIS: error= 7.53D-02 at cycle   1 NSaved=   1.
 NSaved= 1 IEnMin= 1 EnMin= -315.453734705358     IErMin= 1 ErrMin= 7.53D-02
 ErrMax= 7.53D-02  0.00D+00 EMaxC= 1.00D-01 BMatC= 6.69D-01 BMatP= 6.69D-01
 IDIUse=3 WtCom= 2.47D-01 WtEn= 7.53D-01
 Coeff-Com:  0.100D+01
 Coeff-En:   0.100D+01
 Coeff:      0.100D+01
 Gap=    -1.091 Goal=   None    Shift=    0.000
 GapD=   -1.091 DampG=0.250 DampE=0.500 DampFc=0.2500 IDamp=-1.
 Damping current iteration by 2.50D-01
 RMSDP=4.79D-02 MaxDP=2.28D+00 DE= 2.19D-05 OVMax= 9.90D-01

 Cycle   8  Pass 1  IDiag  1:
 E= -314.407903148965     Delta-E=        1.045831556393 Rises=F Damp=T
 DIIS: error= 2.22D-02 at cycle   2 NSaved=   2.
 NSaved= 2 IEnMin= 1 EnMin= -315.453734705358     IErMin= 2 ErrMin= 2.22D-02
 ErrMax= 2.22D-02  0.00D+00 EMaxC= 1.00D-01 BMatC= 1.51D-01 BMatP= 6.69D-01
 IDIUse=3 WtCom= 7.78D-01 WtEn= 2.22D-01
 Coeff-Com:  0.264D+00 0.736D+00
 Coeff-En:   0.600D+00 0.400D+00
 Coeff:      0.339D+00 0.661D+00
 Gap=     0.513 Goal=   None    Shift=    0.000
 RMSDP=1.30D-02 MaxDP=5.81D-01 DE= 1.05D+00 OVMax= 1.00D+00

 Cycle   9  Pass 1  IDiag  1:
 E= -315.739831613276     Delta-E=       -1.331928464311 Rises=F Damp=F
 DIIS: error= 7.75D-02 at cycle   3 NSaved=   3.
 NSaved= 3 IEnMin= 3 EnMin= -315.739831613276     IErMin= 2 ErrMin= 2.22D-02
 ErrMax= 7.75D-02  0.00D+00 EMaxC= 1.00D-01 BMatC= 9.24D-01 BMatP= 1.51D-01
 IDIUse=2 WtCom= 0.00D+00 WtEn= 1.00D+00
 EnCoef did   100 forward-backward iterations
 Coeff-En:   0.477D+00 0.954D-02 0.513D+00
 Coeff:      0.477D+00 0.954D-02 0.513D+00
 Gap=    -0.431 Goal=   None    Shift=    0.000
 RMSDP=2.56D-02 MaxDP=2.31D+00 DE=-1.33D+00 OVMax= 9.98D-01

 Cycle  10  Pass 1  IDiag  1:
 E= -303.578256148156     Delta-E=       12.161575465120 Rises=F Damp=F
 DIIS: error= 1.19D-01 at cycle   4 NSaved=   4.
 NSaved= 4 IEnMin= 3 EnMin= -315.739831613276     IErMin= 2 ErrMin= 2.22D-02
 ErrMax= 1.19D-01  0.00D+00 EMaxC= 1.00D-01 BMatC= 2.49D+00 BMatP= 1.51D-01
 IDIUse=2 WtCom= 0.00D+00 WtEn= 1.00D+00
 EnCoef did   100 forward-backward iterations
 Coeff-En:   0.492D+00 0.496D-02 0.394D+00 0.109D+00
 Coeff:      0.492D+00 0.496D-02 0.394D+00 0.109D+00
 Gap=     0.009 Goal=   None    Shift=    0.000
 RMSDP=2.50D-02 MaxDP=2.32D+00 DE= 1.22D+01 OVMax= 1.00D+00

 Cycle  11  Pass 1  IDiag  1:
 E= -315.417547020634     Delta-E=      -11.839290872478 Rises=F Damp=F
 DIIS: error= 7.52D-02 at cycle   5 NSaved=   5.
 NSaved= 5 IEnMin= 3 EnMin= -315.739831613276     IErMin= 2 ErrMin= 2.22D-02
 ErrMax= 7.52D-02  0.00D+00 EMaxC= 1.00D-01 BMatC= 7.11D-01 BMatP= 1.51D-01
 IDIUse=2 WtCom= 0.00D+00 WtEn= 1.00D+00
 EnCoef did   100 forward-backward iterations
 Coeff-En:   0.481D+00 0.000D+00 0.804D-01 0.191D-02 0.436D+00
 Coeff:      0.481D+00 0.000D+00 0.804D-01 0.191D-02 0.436D+00
 Gap=    -0.012 Goal=   None    Shift=    0.000
 RMSDP=4.46D-03 MaxDP=2.29D-01 DE=-1.18D+01 OVMax= 9.99D-01

 Cycle  12  Pass 1  IDiag  1:
 E= -316.349057984801     Delta-E=       -0.931510964167 Rises=F Damp=F
 DIIS: error= 4.49D-02 at cycle   6 NSaved=   6.
 NSaved= 6 IEnMin= 6 EnMin= -316.349057984801     IErMin= 2 ErrMin= 2.22D-02
 ErrMax= 4.49D-02  0.00D+00 EMaxC= 1.00D-01 BMatC= 4.20D-01 BMatP= 1.51D-01
 IDIUse=2 WtCom= 0.00D+00 WtEn= 1.00D+00
 EnCoef did   100 forward-backward iterations
 Coeff-En:   0.463D+00 0.000D+00 0.798D-01 0.141D-02 0.382D+00 0.733D-01
 Coeff:      0.463D+00 0.000D+00 0.798D-01 0.141D-02 0.382D+00 0.733D-01
 Gap=    -0.004 Goal=   None    Shift=    0.000
 RMSDP=7.97D-03 MaxDP=3.10D-01 DE=-9.32D-01 OVMax= 9.92D-01

 Cycle  13  Pass 1  IDiag  1:
 E= -316.131606228065     Delta-E=        0.217451756737 Rises=F Damp=F
 DIIS: error= 4.52D-02 at cycle   7 NSaved=   7.
 NSaved= 7 IEnMin= 6 EnMin= -316.349057984801     IErMin= 2 ErrMin= 2.22D-02
 ErrMax= 4.52D-02  0.00D+00 EMaxC= 1.00D-01 BMatC= 4.64D-01 BMatP= 1.51D-01
 IDIUse=2 WtCom= 0.00D+00 WtEn= 1.00D+00
 EnCoef did    39 forward-backward iterations
 Coeff-En:   0.473D-01 0.000D+00 0.000D+00 0.000D+00 0.227D-01 0.490D+00
 Coeff-En:   0.440D+00
 Coeff:      0.473D-01 0.000D+00 0.000D+00 0.000D+00 0.227D-01 0.490D+00
 Coeff:      0.440D+00
 Gap=    -0.019 Goal=   None    Shift=    0.000
 RMSDP=5.54D-03 MaxDP=3.24D-01 DE= 2.17D-01 OVMax= 9.96D-01

 Cycle  14  Pass 1  IDiag  1:
 E= -316.471042846646     Delta-E=       -0.339436618581 Rises=F Damp=F
 DIIS: error= 4.98D-02 at cycle   8 NSaved=   8.
 NSaved= 8 IEnMin= 8 EnMin= -316.471042846646     IErMin= 2 ErrMin= 2.22D-02
 ErrMax= 4.98D-02  0.00D+00 EMaxC= 1.00D-01 BMatC= 4.53D-01 BMatP= 1.51D-01
 IDIUse=2 WtCom= 0.00D+00 WtEn= 1.00D+00
 EnCoef did     7 forward-backward iterations
 Coeff-En:   0.280D-01 0.000D+00 0.000D+00 0.000D+00 0.163D-02 0.484D+00
 Coeff-En:   0.431D+00 0.551D-01
 Coeff:      0.280D-01 0.000D+00 0.000D+00 0.000D+00 0.163D-02 0.484D+00
 Coeff:      0.431D+00 0.551D-01
 Gap=    -0.020 Goal=   None    Shift=    0.000
 RMSDP=6.60D-03 MaxDP=2.48D-01 DE=-3.39D-01 OVMax= 9.73D-01

 Cycle  15  Pass 1  IDiag  1:
 E= -316.769246198553     Delta-E=       -0.298203351907 Rises=F Damp=F
 DIIS: error= 3.93D-02 at cycle   9 NSaved=   9.
 NSaved= 9 IEnMin= 9 EnMin= -316.769246198553     IErMin= 2 ErrMin= 2.22D-02
 ErrMax= 3.93D-02  0.00D+00 EMaxC= 1.00D-01 BMatC= 3.33D-01 BMatP= 1.51D-01
 IDIUse=2 WtCom= 0.00D+00 WtEn= 1.00D+00
 EnCoef did     7 forward-backward iterations
 Coeff-En:   0.267D-01 0.000D+00 0.000D+00 0.000D+00 0.154D-02 0.456D+00
 Coeff-En:   0.405D+00 0.660D-01 0.439D-01
 Coeff:      0.267D-01 0.000D+00 0.000D+00 0.000D+00 0.154D-02 0.456D+00
 Coeff:      0.405D+00 0.660D-01 0.439D-01
 Gap=    -0.002 Goal=   None    Shift=    0.000
 RMSDP=6.27D-03 MaxDP=3.10D-01 DE=-2.98D-01 OVMax= 9.79D-01

 Cycle  16  Pass 1  IDiag  1:
 E= -316.309623939798     Delta-E=        0.459622258755 Rises=F Damp=F
 DIIS: error= 4.91D-02 at cycle  10 NSaved=  10.
 NSaved=10 IEnMin= 9 EnMin= -316.769246198553     IErMin= 2 ErrMin= 2.22D-02
 ErrMax= 4.91D-02  0.00D+00 EMaxC= 1.00D-01 BMatC= 4.05D-01 BMatP= 1.51D-01
 IDIUse=2 WtCom= 0.00D+00 WtEn= 1.00D+00
 EnCoef did   100 forward-backward iterations
 Coeff-En:   0.216D-03 0.000D+00 0.000D+00 0.000D+00 0.150D-02 0.432D+00
 Coeff-En:   0.398D+00 0.680D-01 0.601D-01 0.407D-01
 Coeff:      0.216D-03 0.000D+00 0.000D+00 0.000D+00 0.150D-02 0.432D+00
 Coeff:      0.398D+00 0.680D-01 0.601D-01 0.407D-01
 Gap=     0.000 Goal=   None    Shift=    0.000
 RMSDP=6.87D-03 MaxDP=2.74D-01 DE= 4.60D-01 OVMax= 9.85D-01

 Cycle  17  Pass 1  IDiag  1:
 E= -316.482627085344     Delta-E=       -0.173003145545 Rises=F Damp=F
 DIIS: error= 3.97D-02 at cycle  11 NSaved=  11.
 NSaved=11 IEnMin= 9 EnMin= -316.769246198553     IErMin= 2 ErrMin= 2.22D-02
 ErrMax= 3.97D-02  0.00D+00 EMaxC= 1.00D-01 BMatC= 3.50D-01 BMatP= 1.51D-01
 IDIUse=2 WtCom= 0.00D+00 WtEn= 1.00D+00
 EnCoef did    12 forward-backward iterations
 Coeff-En:   0.193D-03 0.000D+00 0.000D+00 0.000D+00 0.134D-02 0.383D+00
 Coeff-En:   0.349D+00 0.750D-01 0.840D-01 0.632D-01 0.437D-01
 Coeff:      0.193D-03 0.000D+00 0.000D+00 0.000D+00 0.134D-02 0.383D+00
 Coeff:      0.349D+00 0.750D-01 0.840D-01 0.632D-01 0.437D-01
 Gap=    -0.003 Goal=   None    Shift=    0.000
 RMSDP=5.64D-03 MaxDP=2.73D-01 DE=-1.73D-01 OVMax= 9.44D-01

 Cycle  18  Pass 1  IDiag  1:
 E= -316.354653334790     Delta-E=        0.127973750554 Rises=F Damp=F
 DIIS: error= 4.91D-02 at cycle  12 NSaved=  12.
 NSaved=12 IEnMin= 9 EnMin= -316.769246198553     IErMin= 2 ErrMin= 2.22D-02
 ErrMax= 4.91D-02  0.00D+00 EMaxC= 1.00D-01 BMatC= 3.95D-01 BMatP= 1.51D-01
 IDIUse=2 WtCom= 0.00D+00 WtEn= 1.00D+00
 EnCoef did    70 forward-backward iterations
 Coeff-En:   0.135D-03 0.000D+00 0.000D+00 0.000D+00 0.936D-03 0.242D+00
 Coeff-En:   0.219D+00 0.933D-01 0.168D+00 0.106D+00 0.964D-01 0.740D-01
 Coeff:      0.135D-03 0.000D+00 0.000D+00 0.000D+00 0.936D-03 0.242D+00
 Coeff:      0.219D+00 0.933D-01 0.168D+00 0.106D+00 0.964D-01 0.740D-01
 Gap=    -0.030 Goal=   None    Shift=    0.000
 RMSDP=5.63D-03 MaxDP=2.90D-01 DE= 1.28D-01 OVMax= 9.66D-01

 Cycle  19  Pass 1  IDiag  1:
 E= -316.258354485184     Delta-E=        0.096298849606 Rises=F Damp=F
 DIIS: error= 4.94D-02 at cycle  13 NSaved=  13.
 NSaved=13 IEnMin= 9 EnMin= -316.769246198553     IErMin= 2 ErrMin= 2.22D-02
 ErrMax= 4.94D-02  0.00D+00 EMaxC= 1.00D-01 BMatC= 4.16D-01 BMatP= 1.51D-01
 IDIUse=2 WtCom= 0.00D+00 WtEn= 1.00D+00
 EnCoef did   100 forward-backward iterations
 Coeff-En:   0.106D-03 0.000D+00 0.000D+00 0.000D+00 0.733D-03 0.102D+00
 Coeff-En:   0.920D-01 0.989D-01 0.224D+00 0.168D+00 0.149D+00 0.109D+00
 Coeff-En:   0.557D-01
 Coeff:      0.106D-03 0.000D+00 0.000D+00 0.000D+00 0.733D-03 0.102D+00
 Coeff:      0.920D-01 0.989D-01 0.224D+00 0.168D+00 0.149D+00 0.109D+00
 Coeff:      0.557D-01
 Gap=    -0.009 Goal=   None    Shift=    0.000
 RMSDP=5.99D-03 MaxDP=2.43D-01 DE= 9.63D-02 OVMax= 9.73D-01

 Cycle  20  Pass 1  IDiag  1:
 E= -316.690597896496     Delta-E=       -0.432243411312 Rises=F Damp=F
 DIIS: error= 4.20D-02 at cycle  14 NSaved=  14.
 NSaved=14 IEnMin= 9 EnMin= -316.769246198553     IErMin= 2 ErrMin= 2.22D-02
 ErrMax= 4.20D-02  0.00D+00 EMaxC= 1.00D-01 BMatC= 3.13D-01 BMatP= 1.51D-01
 IDIUse=2 WtCom= 0.00D+00 WtEn= 1.00D+00
 EnCoef did    96 forward-backward iterations
 Coeff-En:   0.102D-03 0.000D+00 0.000D+00 0.000D+00 0.707D-03 0.743D-01
 Coeff-En:   0.645D-01 0.941D-01 0.237D+00 0.167D+00 0.148D+00 0.126D+00
 Coeff-En:   0.579D-01 0.301D-01
 Coeff:      0.102D-03 0.000D+00 0.000D+00 0.000D+00 0.707D-03 0.743D-01
 Coeff:      0.645D-01 0.941D-01 0.237D+00 0.167D+00 0.148D+00 0.126D+00
 Coeff:      0.579D-01 0.301D-01
 Gap=     0.001 Goal=   None    Shift=    0.000
 RMSDP=5.77D-03 MaxDP=2.95D-01 DE=-4.32D-01 OVMax= 8.23D-01

 Cycle  21  Pass 1  IDiag  1:
 E= -316.931628070366     Delta-E=       -0.241030173871 Rises=F Damp=F
 DIIS: error= 3.47D-02 at cycle  15 NSaved=  15.
 NSaved=15 IEnMin=15 EnMin= -316.931628070366     IErMin= 2 ErrMin= 2.22D-02
 ErrMax= 3.47D-02  0.00D+00 EMaxC= 1.00D-01 BMatC= 2.71D-01 BMatP= 1.51D-01
 IDIUse=2 WtCom= 0.00D+00 WtEn= 1.00D+00
 EnCoef did   100 forward-backward iterations
 Coeff-En:   0.105D-03 0.000D+00 0.000D+00 0.000D+00 0.731D-03 0.179D-01
 Coeff-En:   0.363D-02 0.119D-02 0.230D+00 0.392D-01 0.202D-01 0.215D+00
 Coeff-En:   0.334D-01 0.221D+00 0.218D+00
 Coeff:      0.105D-03 0.000D+00 0.000D+00 0.000D+00 0.731D-03 0.179D-01
 Coeff:      0.363D-02 0.119D-02 0.230D+00 0.392D-01 0.202D-01 0.215D+00
 Coeff:      0.334D-01 0.221D+00 0.218D+00
 Gap=    -0.003 Goal=   None    Shift=    0.000
 RMSDP=6.17D-03 MaxDP=2.89D-01 DE=-2.41D-01 OVMax= 8.90D-01

 Cycle  22  Pass 1  IDiag  1:
 E= -316.606362461362     Delta-E=        0.325265609005 Rises=F Damp=F
 DIIS: error= 5.09D-02 at cycle  16 NSaved=  16.
 NSaved=16 IEnMin=15 EnMin= -316.931628070366     IErMin= 2 ErrMin= 2.22D-02
 ErrMax= 5.09D-02  0.00D+00 EMaxC= 1.00D-01 BMatC= 3.81D-01 BMatP= 1.51D-01
 IDIUse=2 WtCom= 0.00D+00 WtEn= 1.00D+00
 EnCoef did   100 forward-backward iterations
 Coeff-En:   0.946D-04 0.000D+00 0.000D+00 0.000D+00 0.657D-03 0.172D-01
 Coeff-En:   0.327D-02 0.107D-02 0.198D+00 0.107D-01 0.572D-03 0.210D+00
 Coeff-En:   0.282D-01 0.242D+00 0.245D+00 0.428D-01
 Coeff:      0.946D-04 0.000D+00 0.000D+00 0.000D+00 0.657D-03 0.172D-01
 Coeff:      0.327D-02 0.107D-02 0.198D+00 0.107D-01 0.572D-03 0.210D+00
 Coeff:      0.282D-01 0.242D+00 0.245D+00 0.428D-01
 Gap=     0.003 Goal=   None    Shift=    0.000
 RMSDP=5.07D-03 MaxDP=2.94D-01 DE= 3.25D-01 OVMax= 9.06D-01

 Cycle  23  Pass 1  IDiag  1:
 E= -316.506985914655     Delta-E=        0.099376546707 Rises=F Damp=F
 DIIS: error= 5.39D-02 at cycle  17 NSaved=  17.
 NSaved=17 IEnMin=15 EnMin= -316.931628070366     IErMin= 2 ErrMin= 2.22D-02
 ErrMax= 5.39D-02  0.00D+00 EMaxC= 1.00D-01 BMatC= 3.69D-01 BMatP= 1.51D-01
 IDIUse=2 WtCom= 0.00D+00 WtEn= 1.00D+00
 EnCoef did   100 forward-backward iterations
 Coeff-En:   0.761D-04 0.000D+00 0.000D+00 0.000D+00 0.528D-03 0.234D-02
 Coeff-En:   0.204D-01 0.857D-03 0.133D+00 0.315D-03 0.460D-03 0.149D+00
 Coeff-En:   0.285D-01 0.239D+00 0.274D+00 0.703D-01 0.817D-01
 Coeff:      0.761D-04 0.000D+00 0.000D+00 0.000D+00 0.528D-03 0.234D-02
 Coeff:      0.204D-01 0.857D-03 0.133D+00 0.315D-03 0.460D-03 0.149D+00
 Coeff:      0.285D-01 0.239D+00 0.274D+00 0.703D-01 0.817D-01
 Gap=     0.005 Goal=   None    Shift=    0.000
 RMSDP=4.91D-03 MaxDP=2.46D-01 DE= 9.94D-02 OVMax= 8.04D-01

 Cycle  24  Pass 1  IDiag  1:
 E= -316.763776519345     Delta-E=       -0.256790604690 Rises=F Damp=F
 DIIS: error= 5.01D-02 at cycle  18 NSaved=  18.
 NSaved=18 IEnMin=15 EnMin= -316.931628070366     IErMin= 2 ErrMin= 2.22D-02
 ErrMax= 5.01D-02  0.00D+00 EMaxC= 1.00D-01 BMatC= 3.37D-01 BMatP= 1.51D-01
 IDIUse=2 WtCom= 0.00D+00 WtEn= 1.00D+00
 EnCoef did   100 forward-backward iterations
 Coeff-En:   0.746D-04 0.000D+00 0.000D+00 0.000D+00 0.518D-03 0.229D-02
 Coeff-En:   0.637D-01 0.841D-03 0.268D-01 0.309D-03 0.451D-03 0.515D-01
 Coeff-En:   0.180D-01 0.222D+00 0.286D+00 0.109D+00 0.167D+00 0.511D-01
 Coeff:      0.746D-04 0.000D+00 0.000D+00 0.000D+00 0.518D-03 0.229D-02
 Coeff:      0.637D-01 0.841D-03 0.268D-01 0.309D-03 0.451D-03 0.515D-01
 Coeff:      0.180D-01 0.222D+00 0.286D+00 0.109D+00 0.167D+00 0.511D-01
 Gap=    -0.002 Goal=   None    Shift=    0.000
 RMSDP=6.12D-03 MaxDP=1.97D-01 DE=-2.57D-01 OVMax= 9.74D-01

 Cycle  25  Pass 1  IDiag  1:
 E= -317.131319859825     Delta-E=       -0.367543340480 Rises=F Damp=F
 DIIS: error= 3.47D-02 at cycle  19 NSaved=  19.
 NSaved=19 IEnMin=19 EnMin= -317.131319859825     IErMin= 2 ErrMin= 2.22D-02
 ErrMax= 3.47D-02  0.00D+00 EMaxC= 1.00D-01 BMatC= 2.21D-01 BMatP= 1.51D-01
 IDIUse=2 WtCom= 0.00D+00 WtEn= 1.00D+00
 EnCoef did   100 forward-backward iterations
 Coeff-En:   0.688D-04 0.000D+00 0.000D+00 0.000D+00 0.478D-03 0.211D-02
 Coeff-En:   0.160D-02 0.775D-03 0.775D-05 0.285D-03 0.416D-03 0.283D-01
 Coeff-En:   0.774D-03 0.227D+00 0.267D+00 0.128D+00 0.716D-01 0.136D+00
 Coeff-En:   0.135D+00
 Coeff:      0.688D-04 0.000D+00 0.000D+00 0.000D+00 0.478D-03 0.211D-02
 Coeff:      0.160D-02 0.775D-03 0.775D-05 0.285D-03 0.416D-03 0.283D-01
 Coeff:      0.774D-03 0.227D+00 0.267D+00 0.128D+00 0.716D-01 0.136D+00
 Coeff:      0.135D+00
 Gap=    -0.001 Goal=   None    Shift=    0.000
 RMSDP=5.44D-03 MaxDP=2.16D-01 DE=-3.68D-01 OVMax= 9.20D-01

 Cycle  26  Pass 1  IDiag  1:
 E= -316.661334035301     Delta-E=        0.469985824524 Rises=F Damp=F
 DIIS: error= 4.54D-02 at cycle  20 NSaved=  20.
 NSaved=20 IEnMin=19 EnMin= -317.131319859825     IErMin= 2 ErrMin= 2.22D-02
 ErrMax= 4.54D-02  0.00D+00 EMaxC= 1.00D-01 BMatC= 3.50D-01 BMatP= 1.51D-01
 IDIUse=2 WtCom= 0.00D+00 WtEn= 1.00D+00
 EnCoef did   100 forward-backward iterations
 Coeff-En:   0.628D-04 0.000D+00 0.000D+00 0.000D+00 0.436D-03 0.193D-02
 Coeff-En:   0.146D-02 0.707D-03 0.707D-05 0.260D-03 0.380D-03 0.236D-01
 Coeff-En:   0.706D-03 0.220D+00 0.259D+00 0.123D+00 0.679D-01 0.143D+00
 Coeff-En:   0.140D+00 0.181D-01
 Coeff:      0.628D-04 0.000D+00 0.000D+00 0.000D+00 0.436D-03 0.193D-02
 Coeff:      0.146D-02 0.707D-03 0.707D-05 0.260D-03 0.380D-03 0.236D-01
 Coeff:      0.706D-03 0.220D+00 0.259D+00 0.123D+00 0.679D-01 0.143D+00
 Coeff:      0.140D+00 0.181D-01
 Gap=    -0.001 Goal=   None    Shift=    0.000
 RMSDP=5.41D-03 MaxDP=2.31D-01 DE= 4.70D-01 OVMax= 8.37D-01

 Cycle  27  Pass 1  IDiag  1:
 E= -317.096283967773     Delta-E=       -0.434949932472 Rises=F Damp=F
 DIIS: error= 3.52D-02 at cycle  21 NSaved=  20.
 NSaved=20 IEnMin=20 EnMin= -317.096283967773     IErMin= 2 ErrMin= 2.22D-02
 ErrMax= 3.52D-02  0.00D+00 EMaxC= 1.00D-01 BMatC= 2.44D-01 BMatP= 1.51D-01
 IDIUse=2 WtCom= 0.00D+00 WtEn= 1.00D+00
 EnCoef did   100 forward-backward iterations
 Coeff-En:   0.000D+00 0.000D+00 0.000D+00 0.000D+00 0.000D+00 0.000D+00
 Coeff-En:   0.979D-01 0.213D-02 0.115D+00 0.350D-02 0.000D+00 0.131D-02
 Coeff-En:   0.885D-02 0.209D+00 0.220D+00 0.121D-01 0.144D+00 0.964D-03
 Coeff-En:   0.178D-02 0.184D+00
 Coeff:      0.000D+00 0.000D+00 0.000D+00 0.000D+00 0.000D+00 0.000D+00
 Coeff:      0.979D-01 0.213D-02 0.115D+00 0.350D-02 0.000D+00 0.131D-02
 Coeff:      0.885D-02 0.209D+00 0.220D+00 0.121D-01 0.144D+00 0.964D-03
 Coeff:      0.178D-02 0.184D+00
 Gap=     0.002 Goal=   None    Shift=    0.000
 RMSDP=5.70D-03 MaxDP=2.15D-01 DE=-4.35D-01 OVMax= 9.88D-01

 Cycle  28  Pass 1  IDiag  1:
 E= -316.983024691143     Delta-E=        0.113259276629 Rises=F Damp=F
 DIIS: error= 4.67D-02 at cycle  22 NSaved=  20.
 NSaved=20 IEnMin=19 EnMin= -317.096283967773     IErMin= 2 ErrMin= 2.22D-02
 ErrMax= 4.67D-02  0.00D+00 EMaxC= 1.00D-01 BMatC= 2.71D-01 BMatP= 1.51D-01
 IDIUse=2 WtCom= 0.00D+00 WtEn= 1.00D+00
 EnCoef did    76 forward-backward iterations
 Coeff-En:   0.000D+00 0.000D+00 0.000D+00 0.000D+00 0.000D+00 0.000D+00
 Coeff-En:   0.300D-01 0.200D-02 0.104D+00 0.257D-04 0.000D+00 0.123D-02
 Coeff-En:   0.131D-04 0.216D+00 0.189D+00 0.850D-04 0.201D-01 0.691D-01
 Coeff-En:   0.232D+00 0.136D+00
 Coeff:      0.000D+00 0.000D+00 0.000D+00 0.000D+00 0.000D+00 0.000D+00
 Coeff:      0.300D-01 0.200D-02 0.104D+00 0.257D-04 0.000D+00 0.123D-02
 Coeff:      0.131D-04 0.216D+00 0.189D+00 0.850D-04 0.201D-01 0.691D-01
 Coeff:      0.232D+00 0.136D+00
 Gap=    -0.001 Goal=   None    Shift=    0.000
 RMSDP=5.34D-03 MaxDP=2.11D-01 DE= 1.13D-01 OVMax= 9.49D-01

 Cycle  29  Pass 1  IDiag  1:
 E= -316.559167618753     Delta-E=        0.423857072390 Rises=F Damp=F
 DIIS: error= 4.77D-02 at cycle  23 NSaved=  20.
 NSaved=20 IEnMin=18 EnMin= -317.096283967773     IErMin= 2 ErrMin= 2.22D-02
 ErrMax= 4.77D-02  0.00D+00 EMaxC= 1.00D-01 BMatC= 3.21D-01 BMatP= 1.51D-01
 IDIUse=2 WtCom= 0.00D+00 WtEn= 1.00D+00
 EnCoef did   100 forward-backward iterations
 Coeff-En:   0.000D+00 0.000D+00 0.000D+00 0.000D+00 0.000D+00 0.331D-03
 Coeff-En:   0.182D-02 0.555D-01 0.234D-04 0.000D+00 0.112D-02 0.119D-04
 Coeff-En:   0.207D+00 0.193D+00 0.189D-01 0.873D-03 0.120D+00 0.193D+00
 Coeff-En:   0.173D+00 0.344D-01
 Coeff:      0.000D+00 0.000D+00 0.000D+00 0.000D+00 0.000D+00 0.331D-03
 Coeff:      0.182D-02 0.555D-01 0.234D-04 0.000D+00 0.112D-02 0.119D-04
 Coeff:      0.207D+00 0.193D+00 0.189D-01 0.873D-03 0.120D+00 0.193D+00
 Coeff:      0.173D+00 0.344D-01
 Gap=    -0.000 Goal=   None    Shift=    0.000
 RMSDP=5.04D-03 MaxDP=2.55D-01 DE= 4.24D-01 OVMax= 7.46D-01

 Cycle  30  Pass 1  IDiag  1:
 E= -316.981574298593     Delta-E=       -0.422406679841 Rises=F Damp=F
 DIIS: error= 7.43D-02 at cycle  24 NSaved=  20.
 NSaved=20 IEnMin=18 EnMin= -317.096283967773     IErMin= 2 ErrMin= 2.22D-02
 ErrMax= 7.43D-02  0.00D+00 EMaxC= 1.00D-01 BMatC= 3.18D-01 BMatP= 1.51D-01
 IDIUse=2 WtCom= 0.00D+00 WtEn= 1.00D+00
 EnCoef did    69 forward-backward iterations
 Coeff-En:   0.000D+00 0.000D+00 0.000D+00 0.000D+00 0.000D+00 0.824D-01
 Coeff-En:   0.218D-02 0.144D-02 0.405D-01 0.000D+00 0.539D-03 0.308D-01
 Coeff-En:   0.180D+00 0.210D+00 0.000D+00 0.135D+00 0.359D-03 0.171D+00
 Coeff-En:   0.170D-02 0.144D+00
 Coeff:      0.000D+00 0.000D+00 0.000D+00 0.000D+00 0.000D+00 0.824D-01
 Coeff:      0.218D-02 0.144D-02 0.405D-01 0.000D+00 0.539D-03 0.308D-01
 Coeff:      0.180D+00 0.210D+00 0.000D+00 0.135D+00 0.359D-03 0.171D+00
 Coeff:      0.170D-02 0.144D+00
 Gap=    -0.007 Goal=   None    Shift=    0.000
 RMSDP=5.74D-03 MaxDP=2.44D-01 DE=-4.22D-01 OVMax= 7.82D-01

 Cycle  31  Pass 1  IDiag  1:
 E= -316.960193114154     Delta-E=        0.021381184440 Rises=F Damp=F
 DIIS: error= 4.22D-02 at cycle  25 NSaved=  20.
 NSaved=20 IEnMin=17 EnMin= -317.096283967773     IErMin=13 ErrMin= 3.47D-02
 ErrMax= 4.22D-02  0.00D+00 EMaxC= 1.00D-01 BMatC= 2.84D-01 BMatP= 2.44D-01
 IDIUse=2 WtCom= 0.00D+00 WtEn= 1.00D+00
 EnCoef did    19 forward-backward iterations
 Coeff-En:   0.000D+00 0.000D+00 0.000D+00 0.000D+00 0.532D-02 0.931D-04
 Coeff-En:   0.000D+00 0.174D-02 0.320D-03 0.000D+00 0.128D-02 0.211D+00
 Coeff-En:   0.184D+00 0.000D+00 0.000D+00 0.428D-01 0.224D+00 0.716D-02
 Coeff-En:   0.164D+00 0.159D+00
 Coeff:      0.000D+00 0.000D+00 0.000D+00 0.000D+00 0.532D-02 0.931D-04
 Coeff:      0.000D+00 0.174D-02 0.320D-03 0.000D+00 0.128D-02 0.211D+00
 Coeff:      0.184D+00 0.000D+00 0.000D+00 0.428D-01 0.224D+00 0.716D-02
 Coeff:      0.164D+00 0.159D+00
 Gap=    -0.002 Goal=   None    Shift=    0.000
 RMSDP=4.74D-03 MaxDP=2.22D-01 DE= 2.14D-02 OVMax= 8.91D-01

 Cycle  32  Pass 1  IDiag  1:
 E= -316.853492067999     Delta-E=        0.106701046155 Rises=F Damp=F
 DIIS: error= 5.96D-02 at cycle  26 NSaved=  20.
 NSaved=20 IEnMin=16 EnMin= -317.096283967773     IErMin=12 ErrMin= 3.47D-02
 ErrMax= 5.96D-02  0.00D+00 EMaxC= 1.00D-01 BMatC= 3.48D-01 BMatP= 2.44D-01
 IDIUse=2 WtCom= 0.00D+00 WtEn= 1.00D+00
 EnCoef did   100 forward-backward iterations
 Coeff-En:   0.000D+00 0.000D+00 0.000D+00 0.739D-03 0.880D-04 0.000D+00
 Coeff-En:   0.164D-02 0.302D-03 0.000D+00 0.121D-02 0.207D+00 0.183D+00
 Coeff-En:   0.000D+00 0.588D-02 0.326D-01 0.229D+00 0.267D-05 0.166D+00
 Coeff-En:   0.148D+00 0.250D-01
 Coeff:      0.000D+00 0.000D+00 0.000D+00 0.739D-03 0.880D-04 0.000D+00
 Coeff:      0.164D-02 0.302D-03 0.000D+00 0.121D-02 0.207D+00 0.183D+00
 Coeff:      0.000D+00 0.588D-02 0.326D-01 0.229D+00 0.267D-05 0.166D+00
 Coeff:      0.148D+00 0.250D-01
 Gap=    -0.003 Goal=   None    Shift=    0.000
 RMSDP=5.09D-03 MaxDP=2.62D-01 DE= 1.07D-01 OVMax= 8.08D-01

 Cycle  33  Pass 1  IDiag  1:
 E= -317.242272321792     Delta-E=       -0.388780253793 Rises=F Damp=F
 DIIS: error= 3.39D-02 at cycle  27 NSaved=  20.
 NSaved=20 IEnMin=20 EnMin= -317.242272321792     IErMin=20 ErrMin= 3.39D-02
 ErrMax= 3.39D-02  0.00D+00 EMaxC= 1.00D-01 BMatC= 1.91D-01 BMatP= 2.44D-01
 IDIUse=3 WtCom= 6.61D-01 WtEn= 3.39D-01
 EnCoef did   100 forward-backward iterations
 Coeff-Com: -0.195D+00-0.938D-01-0.139D+00 0.144D-01-0.896D-01 0.183D-01
 Coeff-Com:  0.153D+00 0.603D-01-0.937D-01 0.113D+00 0.244D+00 0.191D+00
 Coeff-Com:  0.642D-01 0.112D+00 0.518D-01 0.248D+00 0.679D-01 0.441D-01
 Coeff-Com:  0.899D-01 0.138D+00
 Coeff-En:   0.000D+00 0.000D+00 0.246D-02 0.000D+00 0.000D+00 0.560D-03
 Coeff-En:   0.951D-01 0.000D+00 0.000D+00 0.680D-01 0.103D+00 0.117D+00
 Coeff-En:   0.151D-02 0.419D-04 0.000D+00 0.229D+00 0.000D+00 0.183D+00
 Coeff-En:   0.790D-01 0.121D+00
 Coeff:     -0.129D+00-0.620D-01-0.909D-01 0.951D-02-0.592D-01 0.123D-01
 Coeff:      0.133D+00 0.398D-01-0.619D-01 0.979D-01 0.196D+00 0.166D+00
 Coeff:      0.429D-01 0.740D-01 0.342D-01 0.242D+00 0.449D-01 0.912D-01
 Coeff:      0.862D-01 0.132D+00
 Gap=     0.003 Goal=   None    Shift=    0.000
 RMSDP=6.21D-03 MaxDP=2.86D-01 DE=-3.89D-01 OVMax= 9.83D-01

 Cycle  34  Pass 1  IDiag  1:
 E= -316.440162900135     Delta-E=        0.802109421656 Rises=F Damp=F
 DIIS: error= 5.06D-02 at cycle  28 NSaved=  20.
 NSaved=20 IEnMin=19 EnMin= -317.242272321792     IErMin=19 ErrMin= 3.39D-02
 ErrMax= 5.06D-02  0.00D+00 EMaxC= 1.00D-01 BMatC= 3.81D-01 BMatP= 1.91D-01
 IDIUse=2 WtCom= 0.00D+00 WtEn= 1.00D+00
 EnCoef did     7 forward-backward iterations
 Rare condition: small coef for last iteration: -0.890D-15
 Coeff-En:   0.000D+00 0.000D+00 0.962D-02 0.000D+00 0.144D-01 0.536D-01
 Coeff-En:   0.000D+00 0.000D+00 0.339D-01 0.392D-01 0.511D-02 0.374D-01
 Coeff-En:   0.277D-01 0.000D+00 0.235D+00 0.000D+00 0.980D-01 0.357D-01
 Coeff-En:   0.258D+00 0.152D+00
 Coeff:      0.000D+00 0.000D+00 0.962D-02 0.000D+00 0.144D-01 0.536D-01
 Coeff:      0.000D+00 0.000D+00 0.339D-01 0.392D-01 0.511D-02 0.374D-01
 Coeff:      0.277D-01 0.000D+00 0.235D+00 0.000D+00 0.980D-01 0.357D-01
 Coeff:      0.258D+00 0.152D+00
 Gap=    -0.026 Goal=   None    Shift=    0.000
 RMSDP=5.81D-03 MaxDP=2.90D-01 DE= 8.02D-01 OVMax= 8.99D-01

 Cycle  35  Pass 1  IDiag  1:
 E= -316.250021260521     Delta-E=        0.190141639615 Rises=F Damp=F
 DIIS: error= 4.85D-02 at cycle  29 NSaved=  20.
 NSaved=20 IEnMin=15 EnMin= -317.096283967773     IErMin=11 ErrMin= 3.47D-02
 ErrMax= 4.85D-02  0.00D+00 EMaxC= 1.00D-01 BMatC= 4.44D-01 BMatP= 2.44D-01
 IDIUse=2 WtCom= 0.00D+00 WtEn= 1.00D+00
 EnCoef did   100 forward-backward iterations
 Coeff-En:   0.000D+00 0.304D-02 0.000D+00 0.139D-02 0.149D-03 0.261D-01
 Coeff-En:   0.000D+00 0.000D+00 0.755D-03 0.198D+00 0.170D+00 0.000D+00
 Coeff-En:   0.105D+00 0.203D-02 0.189D+00 0.264D-02 0.134D+00 0.106D+00
 Coeff-En:   0.835D-02 0.537D-01
 Coeff:      0.000D+00 0.304D-02 0.000D+00 0.139D-02 0.149D-03 0.261D-01
 Coeff:      0.000D+00 0.000D+00 0.755D-03 0.198D+00 0.170D+00 0.000D+00
 Coeff:      0.105D+00 0.203D-02 0.189D+00 0.264D-02 0.134D+00 0.106D+00
 Coeff:      0.835D-02 0.537D-01
 Gap=     0.002 Goal=   None    Shift=    0.000
 RMSDP=4.13D-03 MaxDP=2.57D-01 DE= 1.90D-01 OVMax= 8.38D-01

 Cycle  36  Pass 1  IDiag  1:
 E= -316.973695210352     Delta-E=       -0.723673949832 Rises=F Damp=F
 DIIS: error= 3.43D-02 at cycle  30 NSaved=  20.
 NSaved=20 IEnMin=15 EnMin= -317.096283967773     IErMin=20 ErrMin= 3.43D-02
 ErrMax= 3.43D-02  0.00D+00 EMaxC= 1.00D-01 BMatC= 2.68D-01 BMatP= 2.44D-01
 IDIUse=2 WtCom= 0.00D+00 WtEn= 1.00D+00
 EnCoef did   100 forward-backward iterations
 Coeff-En:   0.000D+00 0.268D-02 0.000D+00 0.122D-02 0.131D-03 0.188D-02
 Coeff-En:   0.000D+00 0.000D+00 0.101D-02 0.188D+00 0.186D+00 0.122D-02
 Coeff-En:   0.798D-01 0.190D-01 0.211D+00 0.233D-02 0.969D-01 0.114D+00
 Coeff-En:   0.609D-03 0.931D-01
 Coeff:      0.000D+00 0.268D-02 0.000D+00 0.122D-02 0.131D-03 0.188D-02
 Coeff:      0.000D+00 0.000D+00 0.101D-02 0.188D+00 0.186D+00 0.122D-02
 Coeff:      0.798D-01 0.190D-01 0.211D+00 0.233D-02 0.969D-01 0.114D+00
 Coeff:      0.609D-03 0.931D-01
 Gap=    -0.001 Goal=   None    Shift=    0.000
 RMSDP=5.33D-03 MaxDP=2.02D-01 DE=-7.24D-01 OVMax= 8.70D-01

 Cycle  37  Pass 1  IDiag  1:
 E= -317.233968866634     Delta-E=       -0.260273656282 Rises=F Damp=F
 DIIS: error= 3.54D-02 at cycle  31 NSaved=  20.
 NSaved=20 IEnMin=20 EnMin= -317.233968866634     IErMin=19 ErrMin= 3.43D-02
 ErrMax= 3.54D-02  0.00D+00 EMaxC= 1.00D-01 BMatC= 2.02D-01 BMatP= 2.44D-01
 IDIUse=3 WtCom= 6.61D-01 WtEn= 3.39D-01
 EnCoef did   100 forward-backward iterations
 Coeff-Com: -0.437D-01-0.201D+00-0.114D+00-0.107D+00-0.425D-01-0.189D+00
 Coeff-Com:  0.160D+00 0.153D+00-0.106D+00 0.219D+00 0.191D+00 0.189D+00
 Coeff-Com: -0.982D-01 0.361D-01 0.191D+00-0.677D-01-0.492D-01 0.450D-01
 Coeff-Com:  0.477D+00 0.356D+00
 Coeff-En:   0.000D+00 0.230D-02 0.000D+00 0.105D-02 0.113D-03 0.162D-02
 Coeff-En:   0.000D+00 0.000D+00 0.236D-04 0.150D+00 0.135D+00 0.105D-02
 Coeff-En:   0.149D-02 0.113D-02 0.270D+00 0.200D-02 0.118D+00 0.108D+00
 Coeff-En:   0.120D+00 0.876D-01
 Coeff:     -0.289D-01-0.132D+00-0.754D-01-0.701D-01-0.280D-01-0.125D+00
 Coeff:      0.106D+00 0.101D+00-0.699D-01 0.195D+00 0.172D+00 0.125D+00
 Coeff:     -0.644D-01 0.242D-01 0.218D+00-0.441D-01 0.750D-02 0.662D-01
 Coeff:      0.356D+00 0.265D+00
 Gap=     0.006 Goal=   None    Shift=    0.000
 RMSDP=5.15D-03 MaxDP=2.95D-01 DE=-2.60D-01 OVMax= 8.80D-01

 Cycle  38  Pass 1  IDiag  1:
 E= -316.310614633469     Delta-E=        0.923354233165 Rises=F Damp=F
 DIIS: error= 4.49D-02 at cycle  32 NSaved=  20.
 NSaved=20 IEnMin=19 EnMin= -317.233968866634     IErMin=18 ErrMin= 3.43D-02
 ErrMax= 4.49D-02  0.00D+00 EMaxC= 1.00D-01 BMatC= 4.11D-01 BMatP= 2.02D-01
 IDIUse=2 WtCom= 0.00D+00 WtEn= 1.00D+00
 EnCoef did   100 forward-backward iterations
 Rare condition: small coef for last iteration:  0.382D-15
 Coeff-En:   0.486D-02 0.000D+00 0.000D+00 0.637D-02 0.839D-02 0.398D-01
 Coeff-En:   0.000D+00 0.257D-01 0.854D-01 0.451D-01 0.151D-01 0.000D+00
 Coeff-En:   0.000D+00 0.233D+00 0.000D+00 0.110D+00 0.968D-01 0.121D+00
 Coeff-En:   0.152D+00 0.562D-01
 Coeff:      0.486D-02 0.000D+00 0.000D+00 0.637D-02 0.839D-02 0.398D-01
 Coeff:      0.000D+00 0.257D-01 0.854D-01 0.451D-01 0.151D-01 0.000D+00
 Coeff:      0.000D+00 0.233D+00 0.000D+00 0.110D+00 0.968D-01 0.121D+00
 Coeff:      0.152D+00 0.562D-01
 Gap=     0.011 Goal=   None    Shift=    0.000
 RMSDP=5.65D-03 MaxDP=2.96D-01 DE= 9.23D-01 OVMax= 9.53D-01

 Cycle  39  Pass 1  IDiag  1:
 E= -316.193695978732     Delta-E=        0.116918654736 Rises=F Damp=F
 DIIS: error= 4.98D-02 at cycle  33 NSaved=  20.
 NSaved=20 IEnMin=14 EnMin= -317.096283967773     IErMin=18 ErrMin= 3.43D-02
 ErrMax= 4.98D-02  0.00D+00 EMaxC= 1.00D-01 BMatC= 4.35D-01 BMatP= 2.44D-01
 IDIUse=2 WtCom= 0.00D+00 WtEn= 1.00D+00
 EnCoef did   100 forward-backward iterations
 Coeff-En:   0.247D-02 0.000D+00 0.174D-02 0.834D-03 0.395D-02 0.000D+00
 Coeff-En:   0.227D-02 0.111D-02 0.186D+00 0.186D+00 0.000D+00 0.826D-01
 Coeff-En:   0.207D-01 0.207D+00 0.478D-03 0.988D-01 0.114D+00 0.885D-01
 Coeff-En:   0.600D-03 0.393D-02
 Coeff:      0.247D-02 0.000D+00 0.174D-02 0.834D-03 0.395D-02 0.000D+00
 Coeff:      0.227D-02 0.111D-02 0.186D+00 0.186D+00 0.000D+00 0.826D-01
 Coeff:      0.207D-01 0.207D+00 0.478D-03 0.988D-01 0.114D+00 0.885D-01
 Coeff:      0.600D-03 0.393D-02
 Gap=    -0.003 Goal=   None    Shift=    0.000
 RMSDP=6.69D-03 MaxDP=2.98D-01 DE= 1.17D-01 OVMax= 9.25D-01

 Cycle  40  Pass 1  IDiag  1:
 E= -317.239052544881     Delta-E=       -1.045356566149 Rises=F Damp=F
 DIIS: error= 3.54D-02 at cycle  34 NSaved=  20.
 NSaved=20 IEnMin=20 EnMin= -317.239052544881     IErMin=18 ErrMin= 3.43D-02
 ErrMax= 3.54D-02  0.00D+00 EMaxC= 1.00D-01 BMatC= 2.00D-01 BMatP= 2.44D-01
 IDIUse=3 WtCom= 6.61D-01 WtEn= 3.39D-01
 EnCoef did   100 forward-backward iterations
 Coeff-Com: -0.238D+00-0.146D+00-0.946D-01-0.496D-01-0.202D+00 0.149D+00
 Coeff-Com:  0.156D+00-0.133D+00 0.213D+00 0.185D+00 0.165D+00-0.112D+00
 Coeff-Com:  0.469D-01 0.186D+00-0.622D-01-0.506D-01 0.515D-01 0.495D+00
 Coeff-Com:  0.475D-01 0.394D+00
 Coeff-En:   0.208D-02 0.000D+00 0.146D-02 0.701D-03 0.332D-02 0.000D+00
 Coeff-En:   0.191D-02 0.278D-04 0.151D+00 0.136D+00 0.000D+00 0.433D-03
 Coeff-En:   0.221D-02 0.269D+00 0.402D-03 0.119D+00 0.106D+00 0.119D+00
 Coeff-En:   0.467D-03 0.864D-01
 Coeff:     -0.156D+00-0.962D-01-0.620D-01-0.326D-01-0.133D+00 0.986D-01
 Coeff:      0.104D+00-0.881D-01 0.192D+00 0.168D+00 0.109D+00-0.741D-01
 Coeff:      0.318D-01 0.214D+00-0.410D-01 0.694D-02 0.700D-01 0.367D+00
 Coeff:      0.316D-01 0.290D+00
 Gap=     0.001 Goal=   None    Shift=    0.000
 RMSDP=3.61D-03 MaxDP=1.82D-01 DE=-1.05D+00 OVMax= 6.51D-01

 Cycle  41  Pass 1  IDiag  1:
 E= -316.571827162972     Delta-E=        0.667225381909 Rises=F Damp=F
 DIIS: error= 4.26D-02 at cycle  35 NSaved=  20.
 NSaved=20 IEnMin=19 EnMin= -317.239052544881     IErMin=17 ErrMin= 3.43D-02
 ErrMax= 4.26D-02  0.00D+00 EMaxC= 1.00D-01 BMatC= 3.74D-01 BMatP= 2.00D-01
 IDIUse=2 WtCom= 0.00D+00 WtEn= 1.00D+00
 EnCoef did   100 forward-backward iterations
 Rare condition: small coef for last iteration:  0.000D+00
 Coeff-En:   0.000D+00 0.000D+00 0.000D+00 0.000D+00 0.000D+00 0.000D+00
 Coeff-En:   0.133D-01 0.107D-01 0.467D-01 0.000D+00 0.000D+00 0.443D-01
 Coeff-En:   0.238D+00 0.000D+00 0.838D-01 0.104D+00 0.273D-01 0.153D+00
 Coeff-En:   0.274D+00 0.464D-02
 Coeff:      0.000D+00 0.000D+00 0.000D+00 0.000D+00 0.000D+00 0.000D+00
 Coeff:      0.133D-01 0.107D-01 0.467D-01 0.000D+00 0.000D+00 0.443D-01
 Coeff:      0.238D+00 0.000D+00 0.838D-01 0.104D+00 0.273D-01 0.153D+00
 Coeff:      0.274D+00 0.464D-02
 Gap=    -0.011 Goal=   None    Shift=    0.000
 RMSDP=5.68D-03 MaxDP=2.98D-01 DE= 6.67D-01 OVMax= 9.98D-01

 Cycle  42  Pass 1  IDiag  1:
 E= -316.188139288871     Delta-E=        0.383687874100 Rises=F Damp=F
 DIIS: error= 4.58D-02 at cycle  36 NSaved=  20.
 NSaved=20 IEnMin=13 EnMin= -317.096283967773     IErMin=17 ErrMin= 3.43D-02
 ErrMax= 4.58D-02  0.00D+00 EMaxC= 1.00D-01 BMatC= 4.33D-01 BMatP= 2.44D-01
 IDIUse=2 WtCom= 0.00D+00 WtEn= 1.00D+00
 EnCoef did   100 forward-backward iterations
 Coeff-En:   0.685D-03 0.370D-02 0.000D+00 0.000D+00 0.000D+00 0.294D-02
 Coeff-En:   0.000D+00 0.165D+00 0.138D+00 0.000D+00 0.352D-01 0.262D-03
 Coeff-En:   0.255D+00 0.991D-02 0.132D+00 0.971D-01 0.116D+00 0.555D-03
 Coeff-En:   0.419D-01 0.220D-02
 Coeff:      0.685D-03 0.370D-02 0.000D+00 0.000D+00 0.000D+00 0.294D-02
 Coeff:      0.000D+00 0.165D+00 0.138D+00 0.000D+00 0.352D-01 0.262D-03
 Coeff:      0.255D+00 0.991D-02 0.132D+00 0.971D-01 0.116D+00 0.555D-03
 Coeff:      0.419D-01 0.220D-02
 Gap=     0.001 Goal=   None    Shift=    0.000
 RMSDP=6.23D-03 MaxDP=2.84D-01 DE= 3.84D-01 OVMax= 9.89D-01

 Cycle  43  Pass 1  IDiag  1:
 E= -317.084036925057     Delta-E=       -0.895897636186 Rises=F Damp=F
 DIIS: error= 4.75D-02 at cycle  37 NSaved=  20.
 NSaved=20 IEnMin=13 EnMin= -317.096283967773     IErMin=17 ErrMin= 3.43D-02
 ErrMax= 4.75D-02  0.00D+00 EMaxC= 1.00D-01 BMatC= 2.63D-01 BMatP= 2.44D-01
 IDIUse=3 WtCom= 6.61D-01 WtEn= 3.39D-01
 EnCoef did   100 forward-backward iterations
 Coeff-Com: -0.260D+00 0.307D-01 0.271D-01-0.152D+00 0.109D+00 0.116D+00
 Coeff-Com: -0.759D-01 0.294D+00 0.220D+00 0.147D+00-0.515D-01-0.103D-01
 Coeff-Com:  0.264D+00-0.145D-01-0.354D-01 0.756D-01 0.412D+00-0.227D-01
 Coeff-Com: -0.202D+00 0.128D+00
 Coeff-En:   0.582D-03 0.169D-03 0.000D+00 0.000D+00 0.389D-02 0.250D-02
 Coeff-En:   0.560D-03 0.168D+00 0.142D+00 0.000D+00 0.744D-03 0.304D-01
 Coeff-En:   0.253D+00 0.365D-03 0.819D-01 0.104D+00 0.146D+00 0.471D-03
 Coeff-En:   0.187D-02 0.646D-01
 Coeff:     -0.171D+00 0.203D-01 0.179D-01-0.100D+00 0.734D-01 0.776D-01
 Coeff:     -0.500D-01 0.251D+00 0.193D+00 0.972D-01-0.337D-01 0.352D-02
 Coeff:      0.260D+00-0.948D-02 0.442D-02 0.851D-01 0.322D+00-0.148D-01
 Coeff:     -0.133D+00 0.107D+00
 Gap=     0.001 Goal=   None    Shift=    0.000
 RMSDP=3.91D-03 MaxDP=2.34D-01 DE=-8.96D-01 OVMax= 9.21D-01

 Cycle  44  Pass 1  IDiag  1:
 E= -316.824054641020     Delta-E=        0.259982284037 Rises=F Damp=F
 DIIS: error= 3.57D-02 at cycle  38 NSaved=  20.
 NSaved=20 IEnMin=13 EnMin= -317.096283967773     IErMin=17 ErrMin= 3.43D-02
 ErrMax= 3.57D-02  0.00D+00 EMaxC= 1.00D-01 BMatC= 2.89D-01 BMatP= 2.44D-01
 IDIUse=2 WtCom= 0.00D+00 WtEn= 1.00D+00
 EnCoef did   100 forward-backward iterations
 Coeff-En:   0.521D-03 0.151D-03 0.000D+00 0.000D+00 0.348D-02 0.224D-02
 Coeff-En:   0.501D-03 0.168D+00 0.142D+00 0.000D+00 0.667D-03 0.305D-01
 Coeff-En:   0.253D+00 0.327D-03 0.820D-01 0.106D+00 0.146D+00 0.422D-03
 Coeff-En:   0.642D-01 0.311D-04
 Coeff:      0.521D-03 0.151D-03 0.000D+00 0.000D+00 0.348D-02 0.224D-02
 Coeff:      0.501D-03 0.168D+00 0.142D+00 0.000D+00 0.667D-03 0.305D-01
 Coeff:      0.253D+00 0.327D-03 0.820D-01 0.106D+00 0.146D+00 0.422D-03
 Coeff:      0.642D-01 0.311D-04
 Gap=     0.001 Goal=   None    Shift=    0.000
 RMSDP=4.45D-03 MaxDP=2.75D-01 DE= 2.60D-01 OVMax= 8.93D-01

 Cycle  45  Pass 1  IDiag  1:
 E= -317.183120187563     Delta-E=       -0.359065546543 Rises=F Damp=F
 DIIS: error= 4.08D-02 at cycle  39 NSaved=  20.
 NSaved=20 IEnMin=20 EnMin= -317.183120187563     IErMin=17 ErrMin= 3.43D-02
 ErrMax= 4.08D-02  0.00D+00 EMaxC= 1.00D-01 BMatC= 2.20D-01 BMatP= 2.44D-01
 IDIUse=3 WtCom= 6.61D-01 WtEn= 3.39D-01
 EnCoef did   100 forward-backward iterations
 Coeff-Com: -0.791D-01-0.434D-01 0.940D-01 0.393D-01 0.105D+00 0.613D-01
 Coeff-Com: -0.143D+00 0.231D+00 0.175D+00 0.704D-01-0.469D-02-0.666D-01
 Coeff-Com:  0.296D+00-0.100D+00 0.746D-01 0.110D-01 0.261D+00-0.146D+00
 Coeff-Com:  0.189D-01 0.147D+00
 Coeff-En:   0.164D-02 0.114D-02 0.408D-02 0.666D-03 0.000D+00 0.101D-02
 Coeff-En:   0.000D+00 0.105D+00 0.114D+00 0.000D+00 0.126D-03 0.946D-03
 Coeff-En:   0.269D+00 0.111D+00 0.488D-01 0.283D-01 0.139D+00 0.154D-02
 Coeff-En:   0.238D-01 0.150D+00
 Coeff:     -0.517D-01-0.283D-01 0.635D-01 0.262D-01 0.693D-01 0.408D-01
[...]
  10         O                -0.600408          1.260101
  11         O                -0.600060          1.259693
  12         O                -0.599601          1.264900
  13         O                -0.599570          1.265008
  14         O                -0.599353          1.270579
  15         O                -0.599314          1.271117
  16         O                -0.598963          1.270795
  17         O                -0.344342          0.923283
  18         O                -0.343920          0.928329
  19         O                -0.343494          0.928373
  20         O                -0.341277          0.948922
  21         O                -0.341134          0.949205
  22         O                -0.340742          0.953494
  23         O                -0.340666          0.954414
  24         O                -0.340515          0.954290
  25         O                -0.340421          0.953217
  26         O                -0.340410          0.953035
  27         O                -0.340400          0.953338
  28         O                -0.340332          0.953815
  29         O                -0.340229          0.955188
  30         O                -0.336814          0.979780
  31         O                -0.336748          0.980055
  32         O                -0.336476          0.979534
  33         O                -0.180541          1.089995
  34         O                -0.180162          1.092951
  35         O                -0.175610          1.140884
  36         O                -0.175322          1.142624
  37         V                -0.175872          1.140898
  38         V                -0.175307          1.142542
  39         V                -0.175299          1.142653
  40         V                -0.174984          1.143677
  41         V                 0.027639          0.670844
  42         V                 0.046457          0.724274
  43         V                 0.047054          0.724391
  44         V                 0.060601          0.739207
  45         V                 0.063905          0.753580
  46         V                 0.076333          0.757262
  47         V                 0.081203          0.788764
  48         V                 0.081268          0.789146
  49         V                 0.116244          0.820146
  50         V                 0.116835          0.781630
  51         V                 0.117281          0.781657
  52         V                 0.118440          0.770744
  53         V                 0.118449          0.772096
  54         V                 0.120901          0.809828
  55         V                 0.121169          0.811832
  56         V                 0.122138          0.790715
  57         V                 0.122751          0.786256
  58         V                 0.122775          0.786929
  59         V                 0.123321          0.800045
  60         V                 0.123419          0.804286
  61         V                 0.123524          0.795987
  62         V                 0.138985          0.803451
  63         V                 0.141335          0.811552
  64         V                 0.159388          0.897496
  65         V                 0.372484          1.133637
  66         V                 0.375213          1.123443
  67         V                 0.375399          1.122618
  68         V                 0.379620          1.140399
  69         V                 0.379789          1.140605
  70         V                 0.391242          1.134726
  71         V                 0.391389          1.135222
  72         V                 0.395940          1.138270
  73         V                 0.395960          1.138065
  74         V                 0.402174          1.140864
  75         V                 0.403325          1.138357
  76         V                 0.407236          1.125903
  77         V                 0.407844          1.126805
  78         V                 0.429028          1.865855
  79         V                 0.429191          1.584231
  80         V                 0.436523          1.290178
  81         V                 0.436720          1.288240
  82         V                 0.438904          1.632527
  83         V                 0.480001          1.859218
  84         V                 0.480348          1.859325
  85         V                 0.482621          1.867983
  86         V                 0.483460          1.847830
  87         V                 0.486528          1.861331
  88         V                 0.486592          1.862129
  89         V                 0.548832          1.811580
  90         V                 0.553877          1.799125
  91         V                 0.554928          1.811416
  92         V                 0.554964          1.807763
  93         V                 0.555035          1.810759
  94         V                 0.555630          1.810368
  95         V                 0.561075          1.795707
  96         V                 0.561280          1.794250
  97         V                 0.583885          1.953800
  98         V                 0.583997          1.955874
  99         V                 0.598941          2.021473
 100         V                 0.599093          2.023915
 101         V                 0.601616          1.943242
 102         V                 0.604579          2.020407
 103         V                 0.604604          2.020387
 104         V                 0.606260          2.021276
 105         V                 0.606274          2.021344
 106         V                 0.607806          2.030998
 107         V                 0.629774          1.936320
 108         V                 0.630036          1.937934
 109         V                 0.633614          1.885983
 110         V                 0.649845          2.050306
 111         V                 0.657965          2.033458
 112         V                 0.658438          2.030352
 113         V                 0.837444          1.893792
 114         V                 0.842792          1.904317
 115         V                 0.842868          1.904976
 116         V                 0.843254          1.907122
 117         V                 0.843655          1.906705
 118         V                 0.863610          1.834510
 119         V                 0.864173          1.826681
 120         V                 0.872479          1.754339
 121         V                 0.884875          1.667666
 122         V                 0.884952          1.667544
 123         V                 0.885107          1.667445
 124         V                 0.885142          1.667384
 125         V                 0.885268          1.667213
 126         V                 0.885330          1.667255
 127         V                 0.885408          1.667542
 128         V                 0.885502          1.667375
 129         V                 0.885575          1.667618
 130         V                 0.885741          1.667554
 131         V                 0.887841          1.680996
 132         V                 0.887936          1.680727
 133         V                 0.888379          1.677898
 134         V                 0.898616          1.783156
 135         V                 0.900002          1.793274
 136         V                 0.917390          1.889783
 137         V                 1.243272          2.111484
 138         V                 1.244828          2.116449
 139         V                 1.247080          2.108529
 140         V                 1.247214          2.108680
 141         V                 1.249641          2.109921
 142         V                 1.249996          2.115905
 143         V                 1.253203          2.117192
 144         V                 1.253693          2.117498
 145         V                 1.352952          2.029102
 146         V                 1.352958          2.029101
 147         V                 1.353616          2.031241
 148         V                 1.354172          2.032586
 149         V                 1.354454          2.032480
 150         V                 1.358045          2.038587
 151         V                 1.358209          2.039532
 152         V                 1.358418          2.040163
 153         V                 1.473837          2.190736
 154         V                 1.473898          2.190980
 155         V                 1.474940          2.191635
 156         V                 1.476340          2.192501
 157         V                 1.476382          2.192263
 158         V                 1.478428          2.190067
 159         V                 1.478633          2.190198
 160         V                 1.480193          2.190956
 161         V                 1.480437          2.191700
 162         V                 1.481311          2.192812
 163         V                 1.486113          2.191460
 164         V                 1.486217          2.191488
 165         V                 1.488044          2.185943
 166         V                 1.489945          2.192180
 167         V                 1.490767          2.190467
 168         V                 1.490951          2.190575
 169         V                 1.610844          2.526588
 170         V                 1.610930          2.526094
 171         V                 1.611214          2.529808
 172         V                 1.611908          2.531065
 173         V                 1.611976          2.530685
 174         V                 1.615258          2.533946
 175         V                 1.615330          2.534103
 176         V                 1.616536          2.537851
 177         V                 1.616550          2.537999
 178         V                 1.617185          2.541039
 179         V                 1.617682          2.542546
 180         V                 1.621017          2.545515
 181         V                 1.621371          2.545721
 182         V                 1.634493          2.561211
 183         V                 1.634787          2.561816
 184         V                 1.639070          2.568020
 185         V                 1.830783          2.618255
 186         V                 1.830970          2.615448
 187         V                 1.848530          2.618326
 188         V                 1.848783          2.618519
 189         V                 1.849316          2.618864
 190         V                 1.849910          2.617578
 191         V                 1.851248          2.616998
 192         V                 1.851418          2.617207
 193         V                 2.028555          2.821664
 194         V                 2.030184          2.818520
 195         V                 2.030571          2.818002
 196         V                 2.031738          2.814215
 197         V                 2.031774          2.813832
 198         V                 2.034250          2.811817
 199         V                 2.034287          2.811836
 200         V                 2.035134          2.811965
 201         V                 2.035165          2.811776
 202         V                 2.035224          2.813603
 203         V                 2.036167          2.811630
 204         V                 2.036459          2.811704
 205         V                 2.038323          2.810750
 206         V                 2.040158          2.811320
 207         V                 2.040232          2.811282
 208         V                 2.040978          2.812816
 209         V                 2.284904          3.959363
 210         V                 2.286952          3.970897
 211         V                 2.287061          3.971062
 212         V                 2.287605          3.959830
 213         V                 2.288880          3.961878
 214         V                 2.296872          3.970394
 215         V                 2.297028          3.970199
 216         V                 2.299419          3.980622
 217         V                 2.323486          4.181221
 218         V                 2.323902          4.181393
 219         V                 2.328849          4.172873
 220         V                 2.338356          4.192785
 221         V                 2.338397          4.192986
 222         V                 2.342957          4.193497
 223         V                 2.342979          4.193467
 224         V                 2.344735          4.195007
 225         V                 2.344746          4.195078
 226         V                 2.346716          4.200190
 227         V                 2.362400          4.184454
 228         V                 2.362966          4.184878
 229         V                 2.366180          4.181621
 230         V                 2.373936          4.187470
 231         V                 2.380151          4.184957
 232         V                 2.380382          4.184745
 Total kinetic energy from orbitals= 3.149280442806D+02
 No NMR shielding tensors so no spin-rotation constants.
 Leave Link  601 at Fri Jul  3 08:46:51 2020, MaxMem= 16642998272 cpu:        16.2
 (Enter /home/fuchs/agschreiner/public/bin/gaussian09-E.01/g09/l9999.exe)

 Test job not archived.
 1\1\GINC-NODE30-020\SP\RPBEPBE\CC-pVDZ\C8H24\SCHWAN\03-Jul-2020\0\\#p 
 cc-pVDZ pbepbe empiricaldispersion=gd3bj scf=(xqc,maxcycle=250) int=(g
 rid=ultrafine,acc2E=11) iop(6/7=3) gfinput nosymm\\opt\\0,1\C,0,-6.212
 91801,0.01863278,0.00047789\H,0,-6.61477344,-0.37904,-0.95465486\H,0,-
 6.61788884,-0.60487921,0.8245939\H,0,-6.60480743,1.04887824,0.13058308
 \C,0,-2.06827277,1.7521325,-2.31845017\H,0,-2.42422267,1.37406611,-3.2
 994212\H,0,-0.95837108,1.76017845,-2.34120982\H,0,-2.4122808,2.8021915
 7,-2.21383233\C,0,-2.10431724,-2.90586848,-0.36368259\H,0,-2.45820116,
 -3.3364549,-1.32351101\H,0,-0.99469643,-2.94187441,-0.36506473\H,0,-2.
 46338715,-3.56225905,0.45615683\C,0,-2.07675195,1.11577547,2.6929929\H
 ,0,-2.4227445,2.15814761,2.8532452\H,0,-2.43353154,0.50413335,3.547696
 95\H,0,-0.96691944,1.11959843,2.71929864\C,0,6.21284696,0.00159734,0.0
 1773588\H,0,6.60568115,0.07187457,1.05342412\H,0,6.61717853,0.86049009
 ,-0.55737952\H,0,6.61440469,-0.92885752,-0.43493876\C,0,2.07004447,-2.
 41482918,1.61713892\H,0,2.41435998,-2.37139708,2.67139722\H,0,0.960154
 05,-2.43868223,1.62409713\H,0,2.42639834,-3.37191442,1.18245471\C,0,2.
 07741419,2.62526965,1.27307345\H,0,2.42479926,2.72506934,2.32250388\H,
 0,0.967583,2.65094547,1.28002128\H,0,2.43315542,3.51404374,0.71144407\
 C,0,2.1017642,-0.19275694,-2.91935696\H,0,0.99211788,-0.19185698,-2.95
 430958\H,0,2.45507634,-1.12590466,-3.40546619\H,0,2.46032723,0.6638664
 6,-3.5272729\\Version=ES64L-G09RevE.01\HF=-317.8727398\RMSD=4.389e-03\
 Dipole=0.0001979,-0.0130277,-0.0130937\Quadrupole=-0.3724556,0.1913221
 ,0.1811335,-0.0148433,0.0128961,-0.0596545\PG=C01 [X(C8H24)]\\@


                                                                                    A
                                                                                  AA
                                                                                 AAA
                                                                                AAAA
                                                                               AAAAA
                                                                              AAAAAA   KKKKKKKK
                                                                             AAAAAAA   KKKKKKKK
                                                                            AAAAAAAA   KKKKKKKK
                                       ZZZZZZZZZZZZZZZZZZZZ                AAAA  AAA   KKKKKKKK
                                       ZZZZZZZZZZZZZZZZZZZ                AAAA   AAA   KKKKKKKK          K
                                       ZZZZZZZZZZZZZZZZZZ                AAAA    AAA   KKKKKKKK         KKK
                                       ZZZZZZZZZZZZZZZZZ                AAAA     AAA   KKKKKKKK        KKKKK
                                       ZZZZZZZZZZZZZZZZ                AAAA      AAA   KKKKKKKK       KKKKKKK
                                                ZZZZZZ                AAAA       AAA   KKKKKKKK      KKKKKKK
                                               ZZZZZZ                AAAA        AAA   KKKKKKKK     KKKKKKK
                                              ZZZZZZ                AAAA         AAA   KKKKKKKK    KKKKKKK
                                             ZZZZZZ                AAAA          AAA   KKKKKKKK   KKKKKKK
                                            ZZZZZZ                AAAAAAAAAAAAAAAAAA   KKKKKKKK  KKKKKKK
                                           ZZZZZZ                AAAAAAAAAAAAAAAAAAA   KKKKKKKK KKKKKKK
                                          ZZZZZZ                AAAAAAAAAAAAAAAAAAAA   KKKKKKKKKKKKKKK
                                         ZZZZZZ                AAAAAAAAAAAAAAAAAAAAA   KKKKKKKKKKKKKK
                                        ZZZZZZ                AAAAAA        AAAAAAAA   KKKKKKKKKKKKK
                                       ZZZZZZ                AAAAAA         AAAAAAAA   KKKKKKKKKKKK
                                      ZZZZZZ                AAAAAA          AAAAAAAA   KKKKKKKKKKK
                                     ZZZZZZ                AAAAAA           AAAAAAAA   KKKKKKKKKKKK
                                    ZZZZZZ                AAAAAA            AAAAAAAA   KKKKKKKKKKKKK
                                   ZZZZZZ                AAAAAA             AAAAAAAA   KKKKKKKKKKKKKK
                                  ZZZZZZ                AAAAAA              AAAAAAAA   KKKKKKKKKKKKKKK
                                 ZZZZZZ                AAAAAA               AAAAAAAA   KKKKK KKKKKKKKKK
                                ZZZZZZ                AAAAAA                AAAAAAAA   KKKKK  KKKKKKKKKK
                               ZZZZZZ                AAAAAA                            KKKKK   KKKKKKKKKK
                              ZZZZZZ                AAAAAA                             KKKKK    KKKKKKKKKK
                             ZZZZZZ                                                    KKKKK     KKKKKKKKKK
                            ZZZZZZ                                                     KKKKK      KKKKKKKKKK
                           ZZZZZZ                                                      KKKKK       KKKKKKKKKK
                          ZZZZZZ                                                       KKKKK        KKKKKKKKKK
                         ZZZZZZZZZZZZZZZZZZZZZZZZZZZZZZZZZZZZZZZZ                      KKKKK         KKKKKKKKKK
                        ZZZZZZZZZZZZZZZZZZZZZZZZZZZZZZZZZZZZZZZZZ                      KKKKK          KKKKKKKKKK
                       ZZZZZZZZZZZZZZZZZZZZZZZZZZZZZZZZZZZZZZZZZZ                      KKKKK           KKKKKKKKKK
                       ZZZZZZZZZZZZZZZZZZZZZZZZZZZZZZZZZZZZZZZZZZ                      KKKKK            KKKKKKKKKK
                       ZZZZZZZZZZZZZZZZZZZZZZZZZZZZZZZZZZZZZZZZZZ                      KKKKK             KKKKKKKKKK
                       ZZZZZZZZZZZZZZZZZZZZZZZZZZZZZZZZZZZZZZZZZZ                      KKKKK              KKKKKKKKKK
                       ZZZZZZZZZZZZZZZZZZZZZZZZZZZZZZZZZZZZZZZZZZ                      KKKKK               KKKKKKKKKK
                       ZZZZZZZZZZZZZZZZZZZZZZZZZZZZZZZZZZZZZZZZZZ                      KKKKK                KKKKKKKKKK
                       ZZZZZZZZZZZZZZZZZZZZZZZZZZZZZZZZZZZZZZZZZZ                      KKKKK
                                                                                       KKKKK
                                                                                          (J.P.)
 Job cpu time:       0 days 22 hours 37 minutes 23.4 seconds.
 File lengths (MBytes):  RWF=     66 Int=      0 D2E=      0 Chk=      4 Scr=      1
 Normal termination of Gaussian 09 at Fri Jul  3 08:46:52 2020.
