 Entering Gaussian System, Link 0=/home/fuchs/agschreiner/public/bin/gaussian16-C.01/g16/g16
 Input=cluster.com
 Output=cluster.log
 Initial command:
 /home/fuchs/agschreiner/public/bin/gaussian09-E.01/g09/l1.exe "/scratch/fuchs/giessen/schwan/promotion/dimer_paper/bondshare/AdMe/substituent1/Gau-35049.inp" -scrdir="/scratch/fuchs/giessen/schwan/promotion/dimer_paper/bondshare/AdMe/substituent1/"
 Entering Link 1 = /home/fuchs/agschreiner/public/bin/gaussian09-E.01/g09/l1.exe PID=     35050.
  
 Copyright (c) 1988,1990,1992,1993,1995,1998,2003,2009,2015,
            Gaussian, Inc.  All Rights Reserved.
  
 This is part of the Gaussian(R) 09 program.  It is based on
 the Gaussian(R) 03 system (copyright 2003, Gaussian, Inc.),
 the Gaussian(R) 98 system (copyright 1998, Gaussian, Inc.),
 the Gaussian(R) 94 system (copyright 1995, Gaussian, Inc.),
 the Gaussian 92(TM) system (copyright 1992, Gaussian, Inc.),
 the Gaussian 90(TM) system (copyright 1990, Gaussian, Inc.),
 the Gaussian 88(TM) system (copyright 1988, Gaussian, Inc.),
 the Gaussian 86(TM) system (copyright 1986, Carnegie Mellon
 University), and the Gaussian 82(TM) system (copyright 1983,
 Carnegie Mellon University). Gaussian is a federally registered
 trademark of Gaussian, Inc.
  
 This software contains proprietary and confidential information,
 including trade secrets, belonging to Gaussian, Inc.
  
 This software is provided under written license and may be
 used, copied, transmitted, or stored only in accord with that
 written license.
  
 The following legend is applicable only to US Government
 contracts under FAR:
  
                    RESTRICTED RIGHTS LEGEND
  
 Use, reproduction and disclosure by the US Government is
 subject to restrictions as set forth in subparagraphs (a)
 and (c) of the Commercial Computer Software - Restricted
 Rights clause in FAR 52.227-19.
  
 Gaussian, Inc.
 340 Quinnipiac St., Bldg. 40, Wallingford CT 06492
  
  
 ---------------------------------------------------------------
 Warning -- This program may not be used in any manner that
 competes with the business of Gaussian, Inc. or will provide
 assistance to any competitor of Gaussian, Inc.  The licensee
 of this program is prohibited from giving any competitor of
 Gaussian, Inc. access to this program.  By using this program,
 the user acknowledges that Gaussian, Inc. is engaged in the
 business of creating and licensing software in the field of
 computational chemistry and represents and warrants to the
 licensee that it is not a competitor of Gaussian, Inc. and that
 it will not use this program in any manner prohibited above.
 ---------------------------------------------------------------
  

 Cite this work as:
 Gaussian 09, Revision E.01,
 M. J. Frisch, G. W. Trucks, H. B. Schlegel, G. E. Scuseria, 
 M. A. Robb, J. R. Cheeseman, G. Scalmani, V. Barone, B. Mennucci, 
 G. A. Petersson, H. Nakatsuji, M. Caricato, X. Li, H. P. Hratchian, 
 A. F. Izmaylov, J. Bloino, G. Zheng, J. L. Sonnenberg, M. Hada, 
 M. Ehara, K. Toyota, R. Fukuda, J. Hasegawa, M. Ishida, T. Nakajima, 
 Y. Honda, O. Kitao, H. Nakai, T. Vreven, J. A. Montgomery, Jr., 
 J. E. Peralta, F. Ogliaro, M. Bearpark, J. J. Heyd, E. Brothers, 
 K. N. Kudin, V. N. Staroverov, T. Keith, R. Kobayashi, J. Normand, 
 K. Raghavachari, A. Rendell, J. C. Burant, S. S. Iyengar, J. Tomasi, 
 M. Cossi, N. Rega, J. M. Millam, M. Klene, J. E. Knox, J. B. Cross, 
 V. Bakken, C. Adamo, J. Jaramillo, R. Gomperts, R. E. Stratmann, 
 O. Yazyev, A. J. Austin, R. Cammi, C. Pomelli, J. W. Ochterski, 
 R. L. Martin, K. Morokuma, V. G. Zakrzewski, G. A. Voth, 
 P. Salvador, J. J. Dannenberg, S. Dapprich, A. D. Daniels, 
 O. Farkas, J. B. Foresman, J. V. Ortiz, J. Cioslowski, 
 and D. J. Fox, Gaussian, Inc., Wallingford CT, 2013.
 
 ******************************************
 Gaussian 09:  ES64L-G09RevE.01 30-Nov-2015
                 2-Jul-2020 
 ******************************************
 %NProcShared=20
 Will use up to   20 processors via shared memory.
 %Mem=124GB
 %Chk=ziel1
 ----------------------------------------------------------------------
 #p cc-pVDZ pbepbe empiricaldispersion=gd3bj scf=(xqc,maxcycle=250) int
 =(grid=ultrafine,acc2E=11) iop(6/7=3) gfinput nosymm
 ----------------------------------------------------------------------
 1/38=1/1;
 2/12=2,15=1,17=6,18=5,40=1/2;
 3/5=16,11=2,16=1,24=10,25=1,30=1,74=1009,75=-5,124=41/1,2,3;
 4//1;
 5/5=2,7=250,8=3,13=1,38=5,87=11/2,8;
 6/7=3,8=2,9=2,10=2,28=1/1;
 99/5=1,9=1/99;
 Leave Link    1 at Thu Jul  2 20:25:14 2020, MaxMem= 16642998272 cpu:        12.0
 (Enter /home/fuchs/agschreiner/public/bin/gaussian09-E.01/g09/l101.exe)
 ---
 opt
 ---
 Symbolic Z-matrix:
 Charge =  0 Multiplicity = 1
 C                    -6.21292   0.01863   0.00048 
 H                    -6.61477  -0.37904  -0.95465 
 H                    -6.61789  -0.60488   0.82459 
 H                    -6.60481   1.04888   0.13058 
 C                    -2.06827   1.75213  -2.31845 
 H                    -2.42422   1.37407  -3.29942 
 H                    -0.95837   1.76018  -2.34121 
 H                    -2.41228   2.80219  -2.21383 
 C                    -2.10432  -2.90587  -0.36368 
 H                    -2.4582   -3.33645  -1.32351 
 H                    -0.9947   -2.94187  -0.36506 
 H                    -2.46339  -3.56226   0.45616 
 C                    -2.07675   1.11578   2.69299 
 H                    -2.42274   2.15815   2.85325 
 H                    -2.43353   0.50413   3.5477 
 H                    -0.96692   1.1196    2.7193 
 
 NAtoms=     16 NQM=       16 NQMF=       0 NMMI=      0 NMMIF=      0
                NMic=       0 NMicF=      0.
                    Isotopes and Nuclear Properties:
 (Nuclear quadrupole moments (NQMom) in fm**2, nuclear magnetic moments (NMagM)
  in nuclear magnetons)

  Atom         1           2           3           4           5           6           7           8           9          10
 IAtWgt=          12           1           1           1          12           1           1           1          12           1
 AtmWgt=  12.0000000   1.0078250   1.0078250   1.0078250  12.0000000   1.0078250   1.0078250   1.0078250  12.0000000   1.0078250
 NucSpn=           0           1           1           1           0           1           1           1           0           1
 AtZEff=   0.0000000   0.0000000   0.0000000   0.0000000   0.0000000   0.0000000   0.0000000   0.0000000   0.0000000   0.0000000
 NQMom=    0.0000000   0.0000000   0.0000000   0.0000000   0.0000000   0.0000000   0.0000000   0.0000000   0.0000000   0.0000000
 NMagM=    0.0000000   2.7928460   2.7928460   2.7928460   0.0000000   2.7928460   2.7928460   2.7928460   0.0000000   2.7928460
 AtZNuc=   6.0000000   1.0000000   1.0000000   1.0000000   6.0000000   1.0000000   1.0000000   1.0000000   6.0000000   1.0000000

  Atom        11          12          13          14          15          16
 IAtWgt=           1           1          12           1           1           1
 AtmWgt=   1.0078250   1.0078250  12.0000000   1.0078250   1.0078250   1.0078250
 NucSpn=           1           1           0           1           1           1
 AtZEff=   0.0000000   0.0000000   0.0000000   0.0000000   0.0000000   0.0000000
 NQMom=    0.0000000   0.0000000   0.0000000   0.0000000   0.0000000   0.0000000
 NMagM=    2.7928460   2.7928460   0.0000000   2.7928460   2.7928460   2.7928460
 AtZNuc=   1.0000000   1.0000000   6.0000000   1.0000000   1.0000000   1.0000000
 Leave Link  101 at Thu Jul  2 20:25:15 2020, MaxMem= 16642998272 cpu:         2.6
 (Enter /home/fuchs/agschreiner/public/bin/gaussian09-E.01/g09/l202.exe)
                          Input orientation:                          
 ---------------------------------------------------------------------
 Center     Atomic      Atomic             Coordinates (Angstroms)
 Number     Number       Type             X           Y           Z
 ---------------------------------------------------------------------
      1          6           0       -6.212918    0.018633    0.000478
      2          1           0       -6.614773   -0.379040   -0.954655
      3          1           0       -6.617889   -0.604879    0.824594
      4          1           0       -6.604807    1.048878    0.130583
      5          6           0       -2.068273    1.752133   -2.318450
      6          1           0       -2.424223    1.374066   -3.299421
      7          1           0       -0.958371    1.760178   -2.341210
      8          1           0       -2.412281    2.802192   -2.213832
      9          6           0       -2.104317   -2.905868   -0.363683
     10          1           0       -2.458201   -3.336455   -1.323511
     11          1           0       -0.994696   -2.941874   -0.365065
     12          1           0       -2.463387   -3.562259    0.456157
     13          6           0       -2.076752    1.115775    2.692993
     14          1           0       -2.422745    2.158148    2.853245
     15          1           0       -2.433532    0.504133    3.547697
     16          1           0       -0.966919    1.119598    2.719299
 ---------------------------------------------------------------------
                    Distance matrix (angstroms):
                    1          2          3          4          5
     1  C    0.000000
     2  H    1.109914   0.000000
     3  H    1.109926   1.793527   0.000000
     4  H    1.109915   1.793542   1.793526   0.000000
     5  C    5.055743   5.203124   6.011093   5.203122   0.000000
     6  H    5.203916   5.111949   6.205688   5.417376   1.109927
     7  H    6.010553   6.204327   6.902605   6.204672   1.110164
     8  H    5.205402   5.419106   6.207037   5.113479   1.109915
     9  C    5.056275   5.203684   5.203737   6.011550   5.051672
    10  H    5.206482   5.114631   5.420227   6.208050   5.199584
    11  H    6.010662   6.204918   6.204605   6.902544   5.196343
    12  H    5.204749   5.418236   5.112898   6.206444   6.008104
    13  C    5.055811   6.011110   5.203219   5.203240   5.051691
    14  H    5.203962   6.205685   5.417470   5.112046   5.199705
    15  H    5.205981   6.207572   5.114103   5.419682   6.008544
    16  H    6.010375   6.902326   6.204610   6.204211   5.195382
                    6          7          8          9         10
     6  H    0.000000
     7  H    1.793313   0.000000
     8  H    1.793931   1.793285   0.000000
     9  C    5.199879   5.195748   6.008315   0.000000
    10  H    5.108266   5.409332   6.203045   1.109914   0.000000
    11  H    5.411223   5.100566   6.198531   1.110206   1.793365
    12  H    6.202677   6.198280   6.902006   1.109917   1.793943
    13  C    6.008034   5.197040   5.199376   5.051499   6.008341
    14  H    6.202426   5.411574   5.107854   6.007851   6.901971
    15  H    6.902166   6.199433   6.202962   5.199556   6.203176
    16  H    6.197861   5.100898   5.408879   5.196425   6.198761
                   11         12         13         14         15
    11  H    0.000000
    12  H    1.793414   0.000000
    13  C    5.194909   5.199705   0.000000
    14  H    6.197343   6.202478   1.109924   0.000000
    15  H    5.408782   5.108234   1.109917   1.793918   0.000000
    16  H    5.099964   5.411194   1.110151   1.793308   1.793319
                   16
    16  H    0.000000
 Symmetry turned off by external request.
 Stoichiometry    C4H12
 Framework group  C1[X(C4H12)]
 Deg. of freedom    42
 Full point group                 C1      NOp   1
 Rotational constants (GHZ):      1.2229777      1.2214248      1.2213646
 Leave Link  202 at Thu Jul  2 20:25:15 2020, MaxMem= 16642998272 cpu:         1.8
 (Enter /home/fuchs/agschreiner/public/bin/gaussian09-E.01/g09/l301.exe)
 Standard basis: CC-pVDZ (5D, 7F)
 Ernie: Thresh=  0.10000D-02 Tol=  0.10000D-05 Strict=F.
 Ernie:  8 primitive shells out of 148 were deleted.
 AO basis set in the form of general basis input (Overlap normalization):
      1 0
 S   7 1.00       0.000000000000
      0.6665000000D+04  0.6935163173D-03
      0.1000000000D+04  0.5341502433D-02
      0.2280000000D+03  0.2713667141D-01
      0.6471000000D+02  0.1019923853D+00
      0.2106000000D+02  0.2755086365D+00
      0.7495000000D+01  0.4510864331D+00
      0.2797000000D+01  0.2875657448D+00
 S   7 1.00       0.000000000000
      0.6665000000D+04  0.7733547404D-05
      0.2280000000D+03  0.2780721367D-03
      0.6471000000D+02 -0.2578756542D-02
      0.2106000000D+02 -0.8950876838D-02
      0.7495000000D+01 -0.1060588547D+00
      0.2797000000D+01 -0.1315176856D+00
      0.5215000000D+00  0.1099486598D+01
 S   1 1.00       0.000000000000
      0.1596000000D+00  0.1000000000D+01
 P   3 1.00       0.000000000000
      0.9439000000D+01  0.5697925159D-01
      0.2002000000D+01  0.3132072115D+00
      0.5456000000D+00  0.7603767417D+00
 P   1 1.00       0.000000000000
      0.1517000000D+00  0.1000000000D+01
 D   1 1.00       0.000000000000
      0.5500000000D+00  0.1000000000D+01
 ****
      2 0
 S   3 1.00       0.000000000000
      0.1301000000D+02  0.3349872639D-01
      0.1962000000D+01  0.2348008012D+00
      0.4446000000D+00  0.8136829579D+00
 S   1 1.00       0.000000000000
      0.1220000000D+00  0.1000000000D+01
 P   1 1.00       0.000000000000
      0.7270000000D+00  0.1000000000D+01
 ****
      3 0
 S   3 1.00       0.000000000000
      0.1301000000D+02  0.3349872639D-01
      0.1962000000D+01  0.2348008012D+00
      0.4446000000D+00  0.8136829579D+00
 S   1 1.00       0.000000000000
      0.1220000000D+00  0.1000000000D+01
 P   1 1.00       0.000000000000
      0.7270000000D+00  0.1000000000D+01
 ****
      4 0
 S   3 1.00       0.000000000000
      0.1301000000D+02  0.3349872639D-01
      0.1962000000D+01  0.2348008012D+00
      0.4446000000D+00  0.8136829579D+00
 S   1 1.00       0.000000000000
      0.1220000000D+00  0.1000000000D+01
 P   1 1.00       0.000000000000
      0.7270000000D+00  0.1000000000D+01
 ****
      5 0
 S   7 1.00       0.000000000000
      0.6665000000D+04  0.6935163173D-03
      0.1000000000D+04  0.5341502433D-02
      0.2280000000D+03  0.2713667141D-01
      0.6471000000D+02  0.1019923853D+00
      0.2106000000D+02  0.2755086365D+00
      0.7495000000D+01  0.4510864331D+00
      0.2797000000D+01  0.2875657448D+00
 S   7 1.00       0.000000000000
      0.6665000000D+04  0.7733547404D-05
      0.2280000000D+03  0.2780721367D-03
      0.6471000000D+02 -0.2578756542D-02
      0.2106000000D+02 -0.8950876838D-02
      0.7495000000D+01 -0.1060588547D+00
      0.2797000000D+01 -0.1315176856D+00
      0.5215000000D+00  0.1099486598D+01
 S   1 1.00       0.000000000000
      0.1596000000D+00  0.1000000000D+01
 P   3 1.00       0.000000000000
      0.9439000000D+01  0.5697925159D-01
      0.2002000000D+01  0.3132072115D+00
      0.5456000000D+00  0.7603767417D+00
 P   1 1.00       0.000000000000
      0.1517000000D+00  0.1000000000D+01
 D   1 1.00       0.000000000000
      0.5500000000D+00  0.1000000000D+01
 ****
      6 0
 S   3 1.00       0.000000000000
      0.1301000000D+02  0.3349872639D-01
      0.1962000000D+01  0.2348008012D+00
      0.4446000000D+00  0.8136829579D+00
 S   1 1.00       0.000000000000
      0.1220000000D+00  0.1000000000D+01
 P   1 1.00       0.000000000000
      0.7270000000D+00  0.1000000000D+01
 ****
      7 0
 S   3 1.00       0.000000000000
      0.1301000000D+02  0.3349872639D-01
      0.1962000000D+01  0.2348008012D+00
      0.4446000000D+00  0.8136829579D+00
 S   1 1.00       0.000000000000
      0.1220000000D+00  0.1000000000D+01
 P   1 1.00       0.000000000000
      0.7270000000D+00  0.1000000000D+01
 ****
      8 0
 S   3 1.00       0.000000000000
      0.1301000000D+02  0.3349872639D-01
      0.1962000000D+01  0.2348008012D+00
      0.4446000000D+00  0.8136829579D+00
 S   1 1.00       0.000000000000
      0.1220000000D+00  0.1000000000D+01
 P   1 1.00       0.000000000000
      0.7270000000D+00  0.1000000000D+01
 ****
      9 0
 S   7 1.00       0.000000000000
      0.6665000000D+04  0.6935163173D-03
      0.1000000000D+04  0.5341502433D-02
      0.2280000000D+03  0.2713667141D-01
      0.6471000000D+02  0.1019923853D+00
      0.2106000000D+02  0.2755086365D+00
      0.7495000000D+01  0.4510864331D+00
      0.2797000000D+01  0.2875657448D+00
 S   7 1.00       0.000000000000
      0.6665000000D+04  0.7733547404D-05
      0.2280000000D+03  0.2780721367D-03
      0.6471000000D+02 -0.2578756542D-02
      0.2106000000D+02 -0.8950876838D-02
      0.7495000000D+01 -0.1060588547D+00
      0.2797000000D+01 -0.1315176856D+00
      0.5215000000D+00  0.1099486598D+01
 S   1 1.00       0.000000000000
      0.1596000000D+00  0.1000000000D+01
 P   3 1.00       0.000000000000
      0.9439000000D+01  0.5697925159D-01
      0.2002000000D+01  0.3132072115D+00
      0.5456000000D+00  0.7603767417D+00
 P   1 1.00       0.000000000000
      0.1517000000D+00  0.1000000000D+01
 D   1 1.00       0.000000000000
      0.5500000000D+00  0.1000000000D+01
 ****
     10 0
 S   3 1.00       0.000000000000
      0.1301000000D+02  0.3349872639D-01
      0.1962000000D+01  0.2348008012D+00
      0.4446000000D+00  0.8136829579D+00
 S   1 1.00       0.000000000000
      0.1220000000D+00  0.1000000000D+01
 P   1 1.00       0.000000000000
      0.7270000000D+00  0.1000000000D+01
 ****
     11 0
 S   3 1.00       0.000000000000
      0.1301000000D+02  0.3349872639D-01
      0.1962000000D+01  0.2348008012D+00
      0.4446000000D+00  0.8136829579D+00
 S   1 1.00       0.000000000000
      0.1220000000D+00  0.1000000000D+01
 P   1 1.00       0.000000000000
      0.7270000000D+00  0.1000000000D+01
 ****
     12 0
 S   3 1.00       0.000000000000
      0.1301000000D+02  0.3349872639D-01
      0.1962000000D+01  0.2348008012D+00
      0.4446000000D+00  0.8136829579D+00
 S   1 1.00       0.000000000000
      0.1220000000D+00  0.1000000000D+01
 P   1 1.00       0.000000000000
      0.7270000000D+00  0.1000000000D+01
 ****
     13 0
 S   7 1.00       0.000000000000
      0.6665000000D+04  0.6935163173D-03
      0.1000000000D+04  0.5341502433D-02
      0.2280000000D+03  0.2713667141D-01
      0.6471000000D+02  0.1019923853D+00
      0.2106000000D+02  0.2755086365D+00
      0.7495000000D+01  0.4510864331D+00
      0.2797000000D+01  0.2875657448D+00
 S   7 1.00       0.000000000000
      0.6665000000D+04  0.7733547404D-05
      0.2280000000D+03  0.2780721367D-03
      0.6471000000D+02 -0.2578756542D-02
      0.2106000000D+02 -0.8950876838D-02
      0.7495000000D+01 -0.1060588547D+00
      0.2797000000D+01 -0.1315176856D+00
      0.5215000000D+00  0.1099486598D+01
 S   1 1.00       0.000000000000
      0.1596000000D+00  0.1000000000D+01
 P   3 1.00       0.000000000000
      0.9439000000D+01  0.5697925159D-01
      0.2002000000D+01  0.3132072115D+00
      0.5456000000D+00  0.7603767417D+00
 P   1 1.00       0.000000000000
      0.1517000000D+00  0.1000000000D+01
 D   1 1.00       0.000000000000
      0.5500000000D+00  0.1000000000D+01
 ****
     14 0
 S   3 1.00       0.000000000000
      0.1301000000D+02  0.3349872639D-01
      0.1962000000D+01  0.2348008012D+00
      0.4446000000D+00  0.8136829579D+00
 S   1 1.00       0.000000000000
      0.1220000000D+00  0.1000000000D+01
 P   1 1.00       0.000000000000
      0.7270000000D+00  0.1000000000D+01
 ****
     15 0
 S   3 1.00       0.000000000000
      0.1301000000D+02  0.3349872639D-01
      0.1962000000D+01  0.2348008012D+00
      0.4446000000D+00  0.8136829579D+00
 S   1 1.00       0.000000000000
      0.1220000000D+00  0.1000000000D+01
 P   1 1.00       0.000000000000
      0.7270000000D+00  0.1000000000D+01
 ****
     16 0
 S   3 1.00       0.000000000000
      0.1301000000D+02  0.3349872639D-01
      0.1962000000D+01  0.2348008012D+00
      0.4446000000D+00  0.8136829579D+00
 S   1 1.00       0.000000000000
      0.1220000000D+00  0.1000000000D+01
 P   1 1.00       0.000000000000
      0.7270000000D+00  0.1000000000D+01
 ****

   116 basis functions,   216 primitive gaussians,   120 cartesian basis functions
    18 alpha electrons       18 beta electrons
       nuclear repulsion energy        86.3978488990 Hartrees.
 IExCor= 1009 DFT=T Ex=PBE Corr=PBE ExCW=0 ScaHFX=  0.000000
 ScaDFX=  1.000000  1.000000  1.000000  1.000000 ScalE2=  1.000000  1.000000
 IRadAn=      5 IRanWt=     -1 IRanGd=            0 ICorTp=0 IEmpDi=141
 NAtoms=   16 NActive=   16 NUniq=   16 SFac= 1.00D+00 NAtFMM=   60 NAOKFM=F Big=F
 Integral buffers will be    131072 words long.
 Raffenetti 2 integral format.
 Two-electron integral symmetry is turned off.
 R6Disp:  Grimme-D3(BJ) Dispersion energy=       -0.0040617495 Hartrees.
 Nuclear repulsion after empirical dispersion term =       86.3937871495 Hartrees.
 Leave Link  301 at Thu Jul  2 20:25:16 2020, MaxMem= 16642998272 cpu:         3.2
 (Enter /home/fuchs/agschreiner/public/bin/gaussian09-E.01/g09/l302.exe)
 NPDir=0 NMtPBC=     1 NCelOv=     1 NCel=       1 NClECP=     1 NCelD=      1
         NCelK=      1 NCelE2=     1 NClLst=     1 CellRange=     0.0.
 One-electron integrals computed using PRISM.
 NBasis=   116 RedAO= T EigKep=  2.58D-02  NBF=   116
 NBsUse=   116 1.00D-06 EigRej= -1.00D+00 NBFU=   116
 Precomputing XC quadrature grid using
 IXCGrd= 4 IRadAn=           5 IRanWt=          -1 IRanGd=           0 AccXCQ= 0.00D+00.
 Generated NRdTot=       0 NPtTot=           0 NUsed=           0 NTot=          32
 NSgBfM=   119   119   119   119   119 MxSgAt=    16 MxSgA2=    16.
 Leave Link  302 at Thu Jul  2 20:25:17 2020, MaxMem= 16642998272 cpu:        10.6
 (Enter /home/fuchs/agschreiner/public/bin/gaussian09-E.01/g09/l303.exe)
 DipDrv:  MaxL=1.
 Leave Link  303 at Thu Jul  2 20:25:17 2020, MaxMem= 16642998272 cpu:         1.0
 (Enter /home/fuchs/agschreiner/public/bin/gaussian09-E.01/g09/l401.exe)
 ExpMin= 1.22D-01 ExpMax= 6.67D+03 ExpMxC= 2.28D+02 IAcc=3 IRadAn=         5 AccDes= 0.00D+00
 Harris functional with IExCor= 1009 and IRadAn=       5 diagonalized for initial guess.
 HarFok:  IExCor= 1009 AccDes= 0.00D+00 IRadAn=         5 IDoV= 1 UseB2=F ITyADJ=14
 ICtDFT=  3500011 ScaDFX=  1.000000  1.000000  1.000000  1.000000
 FoFCou: FMM=F IPFlag=           0 FMFlag=      100000 FMFlg1=           0
         NFxFlg=           0 DoJE=T BraDBF=F KetDBF=T FulRan=T
         wScrn=  0.000000 ICntrl=     500 IOpCl=  0 I1Cent=   200000004 NGrid=           0
         NMat0=    1 NMatS0=      1 NMatT0=    0 NMatD0=    1 NMtDS0=    0 NMtDT0=    0
 Symmetry not used in FoFCou.
 Harris En= -159.071888286094    
 JPrj=0 DoOrth=F DoCkMO=F.
 Leave Link  401 at Thu Jul  2 20:25:18 2020, MaxMem= 16642998272 cpu:        12.9
 (Enter /home/fuchs/agschreiner/public/bin/gaussian09-E.01/g09/l502.exe)
 Closed shell SCF:
 Using DIIS extrapolation, IDIIS=  1040.
 Two-electron integral symmetry not used.
 Keep J ints in memory in canonical form, NReq=24040067.
 IVT=       64902 IEndB=       64902 NGot= 16642998272 MDV= 16619905080
 LenX= 16619905080 LenY= 16619890239
 Requested convergence on RMS density matrix=1.00D-08 within 128 cycles.
 Requested convergence on MAX density matrix=1.00D-06.
 Requested convergence on             energy=1.00D-06.
 No special actions if energy rises.
 FoFCou: FMM=F IPFlag=           0 FMFlag=           0 FMFlg1=           0
         NFxFlg=           0 DoJE=F BraDBF=F KetDBF=F FulRan=T
         wScrn=  0.000000 ICntrl=     600 IOpCl=  0 I1Cent=           0 NGrid=           0
         NMat0=    1 NMatS0=   6786 NMatT0=    0 NMatD0=    1 NMtDS0=    0 NMtDT0=    0
 Symmetry not used in FoFCou.
 Integral accuracy reduced to 1.0D-05 until final iterations.

 Cycle   1  Pass 0  IDiag  1:
 E= -158.580442871347    
 DIIS: error= 4.89D-02 at cycle   1 NSaved=   1.
 NSaved= 1 IEnMin= 1 EnMin= -158.580442871347     IErMin= 1 ErrMin= 4.89D-02
 ErrMax= 4.89D-02  0.00D+00 EMaxC= 1.00D-01 BMatC= 2.00D-01 BMatP= 2.00D-01
 IDIUse=3 WtCom= 5.11D-01 WtEn= 4.89D-01
 Coeff-Com:  0.100D+01
 Coeff-En:   0.100D+01
 Coeff:      0.100D+01
 Gap=    -0.302 Goal=   None    Shift=    0.000
 GapD=   -0.302 DampG=0.250 DampE=0.500 DampFc=0.2500 IDamp=-1.
 Damping current iteration by 2.50D-01
 RMSDP=1.32D-02 MaxDP=3.07D-01              OVMax= 8.53D-01

 Cycle   2  Pass 0  IDiag  1:
 E= -158.705473167310     Delta-E=       -0.125030295963 Rises=F Damp=T
 DIIS: error= 2.44D-02 at cycle   2 NSaved=   2.
 NSaved= 2 IEnMin= 2 EnMin= -158.705473167310     IErMin= 2 ErrMin= 2.44D-02
 ErrMax= 2.44D-02  0.00D+00 EMaxC= 1.00D-01 BMatC= 4.00D-02 BMatP= 2.00D-01
 IDIUse=3 WtCom= 7.56D-01 WtEn= 2.44D-01
 Coeff-Com: -0.716D-01 0.107D+01
 Coeff-En:   0.281D+00 0.719D+00
 Coeff:      0.145D-01 0.985D+00
 Gap=    -0.029 Goal=   None    Shift=    0.000
 RMSDP=8.03D-03 MaxDP=1.72D-01 DE=-1.25D-01 OVMax= 1.00D+00

 Cycle   3  Pass 0  IDiag  1:
 E= -158.027098304831     Delta-E=        0.678374862479 Rises=F Damp=F
 DIIS: error= 4.77D-02 at cycle   3 NSaved=   3.
 NSaved= 3 IEnMin= 2 EnMin= -158.705473167310     IErMin= 2 ErrMin= 2.44D-02
 ErrMax= 4.77D-02  0.00D+00 EMaxC= 1.00D-01 BMatC= 2.74D-01 BMatP= 4.00D-02
 IDIUse=2 WtCom= 0.00D+00 WtEn= 1.00D+00
 EnCoef did     2 forward-backward iterations
 Coeff-En:   0.136D+00 0.682D+00 0.182D+00
 Coeff:      0.136D+00 0.682D+00 0.182D+00
 Gap=    -0.113 Goal=   None    Shift=    0.000
 RMSDP=1.18D-02 MaxDP=3.18D-01 DE= 6.78D-01 OVMax= 9.96D-01

 Cycle   4  Pass 0  IDiag  1:
 E= -157.992945727165     Delta-E=        0.034152577666 Rises=F Damp=F
 DIIS: error= 4.29D-02 at cycle   4 NSaved=   4.
 NSaved= 4 IEnMin= 2 EnMin= -158.705473167310     IErMin= 2 ErrMin= 2.44D-02
 ErrMax= 4.29D-02  0.00D+00 EMaxC= 1.00D-01 BMatC= 3.09D-01 BMatP= 4.00D-02
 IDIUse=2 WtCom= 0.00D+00 WtEn= 1.00D+00
 EnCoef did     2 forward-backward iterations
 Coeff-En:   0.180D+00 0.000D+00 0.400D+00 0.420D+00
 Coeff:      0.180D+00 0.000D+00 0.400D+00 0.420D+00
 Gap=    -0.047 Goal=   None    Shift=    0.000
 RMSDP=8.64D-03 MaxDP=3.23D-01 DE= 3.42D-02 OVMax= 9.95D-01

 Problem detected with inexpensive integrals.
 Switching to full accuracy and repeating last cycle.
 Cycle   5  Pass 1  IDiag  1:
 E= -157.992941713231     Delta-E=        0.000004013933 Rises=F Damp=F
 DIIS: error= 4.29D-02 at cycle   1 NSaved=   1.
 NSaved= 1 IEnMin= 1 EnMin= -157.992941713231     IErMin= 1 ErrMin= 4.29D-02
 ErrMax= 4.29D-02  0.00D+00 EMaxC= 1.00D-01 BMatC= 3.09D-01 BMatP= 3.09D-01
 IDIUse=3 WtCom= 5.71D-01 WtEn= 4.29D-01
 Coeff-Com:  0.100D+01
 Coeff-En:   0.100D+01
 Coeff:      0.100D+01
 Gap=    -0.739 Goal=   None    Shift=    0.000
 GapD=   -0.739 DampG=0.250 DampE=0.500 DampFc=0.2500 IDamp=-1.
 Damping current iteration by 2.50D-01
 RMSDP=6.40D-02 MaxDP=2.04D+00 DE= 4.01D-06 OVMax= 9.94D-01

 Cycle   6  Pass 1  IDiag  1:
 E= -157.641188986801     Delta-E=        0.351752726430 Rises=F Damp=T
 DIIS: error= 2.31D-02 at cycle   2 NSaved=   2.
 NSaved= 2 IEnMin= 1 EnMin= -157.992941713231     IErMin= 2 ErrMin= 2.31D-02
 ErrMax= 2.31D-02  0.00D+00 EMaxC= 1.00D-01 BMatC= 5.27D-02 BMatP= 3.09D-01
 IDIUse=3 WtCom= 7.69D-01 WtEn= 2.31D-01
 Coeff-Com:  0.198D+00 0.802D+00
 Coeff-En:   0.608D+00 0.392D+00
 Coeff:      0.293D+00 0.707D+00
 Gap=    -0.054 Goal=   None    Shift=    0.000
 RMSDP=1.80D-02 MaxDP=5.46D-01 DE= 3.52D-01 OVMax= 1.00D+00

 Cycle   7  Pass 1  IDiag  1:
 E= -157.839995168411     Delta-E=       -0.198806181609 Rises=F Damp=F
 DIIS: error= 4.44D-02 at cycle   3 NSaved=   3.
 NSaved= 3 IEnMin= 1 EnMin= -157.992941713231     IErMin= 2 ErrMin= 2.31D-02
 ErrMax= 4.44D-02  0.00D+00 EMaxC= 1.00D-01 BMatC= 4.72D-01 BMatP= 5.27D-02
 IDIUse=2 WtCom= 0.00D+00 WtEn= 1.00D+00
 EnCoef did   100 forward-backward iterations
 Coeff-En:   0.519D+00 0.478D-02 0.476D+00
 Coeff:      0.519D+00 0.478D-02 0.476D+00
 Gap=     0.009 Goal=   None    Shift=    0.000
 RMSDP=3.19D-03 MaxDP=8.48D-02 DE=-1.99D-01 OVMax= 1.71D-01

 Cycle   8  Pass 1  IDiag  1:
 E= -158.237625260994     Delta-E=       -0.397630092583 Rises=F Damp=F
 DIIS: error= 3.90D-02 at cycle   4 NSaved=   4.
 NSaved= 4 IEnMin= 4 EnMin= -158.237625260994     IErMin= 2 ErrMin= 2.31D-02
 ErrMax= 3.90D-02  0.00D+00 EMaxC= 1.00D-01 BMatC= 1.67D-01 BMatP= 5.27D-02
 IDIUse=2 WtCom= 0.00D+00 WtEn= 1.00D+00
 Coeff-En:   0.461D+00 0.000D+00 0.000D+00 0.539D+00
 Coeff:      0.461D+00 0.000D+00 0.000D+00 0.539D+00
 Gap=    -0.022 Goal=   None    Shift=    0.000
 RMSDP=9.33D-03 MaxDP=2.43D-01 DE=-3.98D-01 OVMax= 9.63D-01

 Cycle   9  Pass 1  IDiag  1:
 E= -158.522852567578     Delta-E=       -0.285227306585 Rises=F Damp=F
 DIIS: error= 3.34D-02 at cycle   5 NSaved=   5.
 NSaved= 5 IEnMin= 5 EnMin= -158.522852567578     IErMin= 2 ErrMin= 2.31D-02
 ErrMax= 3.34D-02  0.00D+00 EMaxC= 1.00D-01 BMatC= 1.28D-01 BMatP= 5.27D-02
 IDIUse=2 WtCom= 0.00D+00 WtEn= 1.00D+00
 EnCoef did     7 forward-backward iterations
 Coeff-En:   0.397D+00 0.000D+00 0.000D+00 0.503D+00 0.998D-01
 Coeff:      0.397D+00 0.000D+00 0.000D+00 0.503D+00 0.998D-01
 Gap=    -0.005 Goal=   None    Shift=    0.000
 RMSDP=1.00D-02 MaxDP=2.77D-01 DE=-2.85D-01 OVMax= 9.93D-01

 Cycle  10  Pass 1  IDiag  1:
 E= -158.125666673405     Delta-E=        0.397185894174 Rises=F Damp=F
 DIIS: error= 4.03D-02 at cycle   6 NSaved=   6.
 NSaved= 6 IEnMin= 5 EnMin= -158.522852567578     IErMin= 2 ErrMin= 2.31D-02
 ErrMax= 4.03D-02  0.00D+00 EMaxC= 1.00D-01 BMatC= 2.23D-01 BMatP= 5.27D-02
 IDIUse=2 WtCom= 0.00D+00 WtEn= 1.00D+00
 EnCoef did    52 forward-backward iterations
 Coeff-En:   0.548D-01 0.000D+00 0.000D+00 0.246D+00 0.440D+00 0.259D+00
 Coeff:      0.548D-01 0.000D+00 0.000D+00 0.246D+00 0.440D+00 0.259D+00
 Gap=    -0.003 Goal=   None    Shift=    0.000
 RMSDP=8.15D-03 MaxDP=2.82D-01 DE= 3.97D-01 OVMax= 9.67D-01

 Cycle  11  Pass 1  IDiag  1:
 E= -158.204153609476     Delta-E=       -0.078486936071 Rises=F Damp=F
 DIIS: error= 4.09D-02 at cycle   7 NSaved=   7.
 NSaved= 7 IEnMin= 5 EnMin= -158.522852567578     IErMin= 2 ErrMin= 2.31D-02
 ErrMax= 4.09D-02  0.00D+00 EMaxC= 1.00D-01 BMatC= 1.86D-01 BMatP= 5.27D-02
 IDIUse=2 WtCom= 0.00D+00 WtEn= 1.00D+00
 EnCoef did    43 forward-backward iterations
 Coeff-En:   0.360D-01 0.000D+00 0.000D+00 0.228D+00 0.447D+00 0.263D+00
 Coeff-En:   0.258D-01
 Coeff:      0.360D-01 0.000D+00 0.000D+00 0.228D+00 0.447D+00 0.263D+00
 Coeff:      0.258D-01
 Gap=    -0.006 Goal=   None    Shift=    0.000
 RMSDP=8.42D-03 MaxDP=1.96D-01 DE=-7.85D-02 OVMax= 7.50D-01

 Cycle  12  Pass 1  IDiag  1:
 E= -158.500421529893     Delta-E=       -0.296267920418 Rises=F Damp=F
 DIIS: error= 5.18D-02 at cycle   8 NSaved=   8.
 NSaved= 8 IEnMin= 5 EnMin= -158.522852567578     IErMin= 2 ErrMin= 2.31D-02
 ErrMax= 5.18D-02  0.00D+00 EMaxC= 1.00D-01 BMatC= 1.51D-01 BMatP= 5.27D-02
 IDIUse=2 WtCom= 0.00D+00 WtEn= 1.00D+00
 EnCoef did   100 forward-backward iterations
 Coeff-En:   0.232D-02 0.000D+00 0.000D+00 0.333D+00 0.165D+00 0.984D-01
 Coeff-En:   0.591D-01 0.342D+00
 Coeff:      0.232D-02 0.000D+00 0.000D+00 0.333D+00 0.165D+00 0.984D-01
 Coeff:      0.591D-01 0.342D+00
 Gap=    -0.001 Goal=   None    Shift=    0.000
 RMSDP=7.64D-03 MaxDP=1.77D-01 DE=-2.96D-01 OVMax= 8.61D-01

 Cycle  13  Pass 1  IDiag  1:
 E= -158.600303760760     Delta-E=       -0.099882230867 Rises=F Damp=F
 DIIS: error= 5.28D-02 at cycle   9 NSaved=   9.
 NSaved= 9 IEnMin= 9 EnMin= -158.600303760760     IErMin= 2 ErrMin= 2.31D-02
 ErrMax= 5.28D-02  0.00D+00 EMaxC= 1.00D-01 BMatC= 1.11D-01 BMatP= 5.27D-02
 IDIUse=2 WtCom= 0.00D+00 WtEn= 1.00D+00
 EnCoef did   100 forward-backward iterations
 Coeff-En:   0.222D-02 0.000D+00 0.000D+00 0.343D+00 0.122D+00 0.431D-01
 Coeff-En:   0.352D-02 0.372D+00 0.114D+00
 Coeff:      0.222D-02 0.000D+00 0.000D+00 0.343D+00 0.122D+00 0.431D-01
 Coeff:      0.352D-02 0.372D+00 0.114D+00
 Gap=    -0.006 Goal=   None    Shift=    0.000
 RMSDP=9.34D-03 MaxDP=2.71D-01 DE=-9.99D-02 OVMax= 9.50D-01

 Cycle  14  Pass 1  IDiag  1:
 E= -158.331849611961     Delta-E=        0.268454148799 Rises=F Damp=F
 DIIS: error= 6.11D-02 at cycle  10 NSaved=  10.
 NSaved=10 IEnMin= 9 EnMin= -158.600303760760     IErMin= 2 ErrMin= 2.31D-02
 ErrMax= 6.11D-02  0.00D+00 EMaxC= 1.00D-01 BMatC= 1.90D-01 BMatP= 5.27D-02
 IDIUse=2 WtCom= 0.00D+00 WtEn= 1.00D+00
 EnCoef did   100 forward-backward iterations
 Coeff-En:   0.000D+00 0.000D+00 0.000D+00 0.112D+00 0.180D+00 0.000D+00
 Coeff-En:   0.118D-02 0.446D-01 0.402D+00 0.260D+00
 Coeff:      0.000D+00 0.000D+00 0.000D+00 0.112D+00 0.180D+00 0.000D+00
 Coeff:      0.118D-02 0.446D-01 0.402D+00 0.260D+00
 Gap=    -0.000 Goal=   None    Shift=    0.000
 RMSDP=8.14D-03 MaxDP=2.48D-01 DE= 2.68D-01 OVMax= 7.84D-01

 Cycle  15  Pass 1  IDiag  1:
 E= -158.321433675684     Delta-E=        0.010415936277 Rises=F Damp=F
 DIIS: error= 5.87D-02 at cycle  11 NSaved=  11.
 NSaved=11 IEnMin= 9 EnMin= -158.600303760760     IErMin= 2 ErrMin= 2.31D-02
 ErrMax= 5.87D-02  0.00D+00 EMaxC= 1.00D-01 BMatC= 1.80D-01 BMatP= 5.27D-02
 IDIUse=2 WtCom= 0.00D+00 WtEn= 1.00D+00
 EnCoef did   100 forward-backward iterations
 Coeff-En:   0.000D+00 0.000D+00 0.000D+00 0.302D-02 0.531D-03 0.000D+00
 Coeff-En:   0.152D-02 0.546D-02 0.490D+00 0.337D+00 0.163D+00
 Coeff:      0.000D+00 0.000D+00 0.000D+00 0.302D-02 0.531D-03 0.000D+00
 Coeff:      0.152D-02 0.546D-02 0.490D+00 0.337D+00 0.163D+00
 Gap=     0.001 Goal=   None    Shift=    0.000
 RMSDP=5.99D-03 MaxDP=1.19D-01 DE= 1.04D-02 OVMax= 6.56D-01

 Cycle  16  Pass 1  IDiag  1:
 E= -158.632935897791     Delta-E=       -0.311502222106 Rises=F Damp=F
 DIIS: error= 4.00D-02 at cycle  12 NSaved=  12.
 NSaved=12 IEnMin=12 EnMin= -158.632935897791     IErMin= 2 ErrMin= 2.31D-02
 ErrMax= 4.00D-02  0.00D+00 EMaxC= 1.00D-01 BMatC= 8.98D-02 BMatP= 5.27D-02
 IDIUse=2 WtCom= 0.00D+00 WtEn= 1.00D+00
 EnCoef did   100 forward-backward iterations
 Coeff-En:   0.000D+00 0.000D+00 0.000D+00 0.482D-01 0.603D-03 0.000D+00
 Coeff-En:   0.172D-02 0.189D-02 0.470D+00 0.111D+00 0.125D-02 0.365D+00
 Coeff:      0.000D+00 0.000D+00 0.000D+00 0.482D-01 0.603D-03 0.000D+00
 Coeff:      0.172D-02 0.189D-02 0.470D+00 0.111D+00 0.125D-02 0.365D+00
 Gap=    -0.005 Goal=   None    Shift=    0.000
 RMSDP=8.18D-03 MaxDP=2.11D-01 DE=-3.12D-01 OVMax= 9.07D-01

 Cycle  17  Pass 1  IDiag  1:
 E= -158.293365908470     Delta-E=        0.339569989321 Rises=F Damp=F
 DIIS: error= 5.33D-02 at cycle  13 NSaved=  13.
 NSaved=13 IEnMin=12 EnMin= -158.632935897791     IErMin= 2 ErrMin= 2.31D-02
 ErrMax= 5.33D-02  0.00D+00 EMaxC= 1.00D-01 BMatC= 1.86D-01 BMatP= 5.27D-02
 IDIUse=2 WtCom= 0.00D+00 WtEn= 1.00D+00
 EnCoef did   100 forward-backward iterations
 Coeff-En:   0.000D+00 0.000D+00 0.000D+00 0.263D-02 0.584D-03 0.000D+00
 Coeff-En:   0.167D-02 0.183D-02 0.466D+00 0.103D+00 0.121D-02 0.371D+00
 Coeff-En:   0.520D-01
 Coeff:      0.000D+00 0.000D+00 0.000D+00 0.263D-02 0.584D-03 0.000D+00
 Coeff:      0.167D-02 0.183D-02 0.466D+00 0.103D+00 0.121D-02 0.371D+00
 Coeff:      0.520D-01
 Gap=     0.003 Goal=   None    Shift=    0.000
 RMSDP=2.05D-03 MaxDP=3.60D-02 DE= 3.40D-01 OVMax= 2.45D-01

 Cycle  18  Pass 1  IDiag  1:
 E= -158.487380935888     Delta-E=       -0.194015027419 Rises=F Damp=F
 DIIS: error= 5.91D-02 at cycle  14 NSaved=  14.
 NSaved=14 IEnMin=12 EnMin= -158.632935897791     IErMin= 2 ErrMin= 2.31D-02
 ErrMax= 5.91D-02  0.00D+00 EMaxC= 1.00D-01 BMatC= 1.47D-01 BMatP= 5.27D-02
 IDIUse=2 WtCom= 0.00D+00 WtEn= 1.00D+00
 EnCoef did   100 forward-backward iterations
 Coeff-En:   0.000D+00 0.000D+00 0.000D+00 0.255D-02 0.567D-03 0.000D+00
 Coeff-En:   0.162D-02 0.178D-02 0.453D+00 0.786D-01 0.118D-02 0.389D+00
 Coeff-En:   0.575D-03 0.716D-01
 Coeff:      0.000D+00 0.000D+00 0.000D+00 0.255D-02 0.567D-03 0.000D+00
 Coeff:      0.162D-02 0.178D-02 0.453D+00 0.786D-01 0.118D-02 0.389D+00
 Coeff:      0.575D-03 0.716D-01
 Gap=     0.001 Goal=   None    Shift=    0.000
 RMSDP=4.55D-03 MaxDP=1.42D-01 DE=-1.94D-01 OVMax= 5.49D-01

 Cycle  19  Pass 1  IDiag  1:
 E= -158.567535453847     Delta-E=       -0.080154517959 Rises=F Damp=F
 DIIS: error= 5.35D-02 at cycle  15 NSaved=  15.
 NSaved=15 IEnMin=12 EnMin= -158.632935897791     IErMin= 2 ErrMin= 2.31D-02
 ErrMax= 5.35D-02  0.00D+00 EMaxC= 1.00D-01 BMatC= 1.19D-01 BMatP= 5.27D-02
 IDIUse=2 WtCom= 0.00D+00 WtEn= 1.00D+00
 EnCoef did   100 forward-backward iterations
 Coeff-En:   0.000D+00 0.000D+00 0.000D+00 0.242D-02 0.537D-03 0.000D+00
 Coeff-En:   0.154D-02 0.168D-02 0.404D+00 0.172D-02 0.112D-02 0.454D+00
 Coeff-En:   0.544D-03 0.574D-01 0.757D-01
 Coeff:      0.000D+00 0.000D+00 0.000D+00 0.242D-02 0.537D-03 0.000D+00
 Coeff:      0.154D-02 0.168D-02 0.404D+00 0.172D-02 0.112D-02 0.454D+00
 Coeff:      0.544D-03 0.574D-01 0.757D-01
 Gap=    -0.000 Goal=   None    Shift=    0.000
 RMSDP=6.62D-03 MaxDP=1.64D-01 DE=-8.02D-02 OVMax= 6.46D-01

 Cycle  20  Pass 1  IDiag  1:
 E= -158.415802186356     Delta-E=        0.151733267491 Rises=F Damp=F
 DIIS: error= 5.08D-02 at cycle  16 NSaved=  16.
 NSaved=16 IEnMin=12 EnMin= -158.632935897791     IErMin= 2 ErrMin= 2.31D-02
 ErrMax= 5.08D-02  0.00D+00 EMaxC= 1.00D-01 BMatC= 1.74D-01 BMatP= 5.27D-02
 IDIUse=2 WtCom= 0.00D+00 WtEn= 1.00D+00
 EnCoef did   100 forward-backward iterations
 Rare condition: small coef for last iteration: -0.210D-15
 Coeff-En:   0.000D+00 0.000D+00 0.000D+00 0.000D+00 0.121D-01 0.000D+00
 Coeff-En:   0.000D+00 0.117D+00 0.266D+00 0.000D+00 0.806D-01 0.251D+00
 Coeff-En:   0.000D+00 0.000D+00 0.168D+00 0.105D+00
 Coeff:      0.000D+00 0.000D+00 0.000D+00 0.000D+00 0.121D-01 0.000D+00
 Coeff:      0.000D+00 0.117D+00 0.266D+00 0.000D+00 0.806D-01 0.251D+00
 Coeff:      0.000D+00 0.000D+00 0.168D+00 0.105D+00
 Gap=     0.002 Goal=   None    Shift=    0.000
 RMSDP=6.83D-03 MaxDP=1.97D-01 DE= 1.52D-01 OVMax= 8.02D-01

 Cycle  21  Pass 1  IDiag  1:
 E= -158.422496085545     Delta-E=       -0.006693899189 Rises=F Damp=F
 DIIS: error= 6.61D-02 at cycle  17 NSaved=  17.
 NSaved=17 IEnMin=12 EnMin= -158.632935897791     IErMin= 2 ErrMin= 2.31D-02
 ErrMax= 6.61D-02  0.00D+00 EMaxC= 1.00D-01 BMatC= 1.76D-01 BMatP= 5.27D-02
 IDIUse=2 WtCom= 0.00D+00 WtEn= 1.00D+00
 EnCoef did   100 forward-backward iterations
 Coeff-En:   0.000D+00 0.000D+00 0.000D+00 0.000D+00 0.232D-02 0.000D+00
 Coeff-En:   0.000D+00 0.809D-03 0.399D+00 0.000D+00 0.344D-03 0.454D+00
 Coeff-En:   0.000D+00 0.231D-01 0.893D-01 0.307D-01 0.291D-04
 Coeff:      0.000D+00 0.000D+00 0.000D+00 0.000D+00 0.232D-02 0.000D+00
 Coeff:      0.000D+00 0.809D-03 0.399D+00 0.000D+00 0.344D-03 0.454D+00
 Coeff:      0.000D+00 0.231D-01 0.893D-01 0.307D-01 0.291D-04
 Gap=    -0.001 Goal=   None    Shift=    0.000
 RMSDP=6.80D-03 MaxDP=1.96D-01 DE=-6.69D-03 OVMax= 7.91D-01

 Cycle  22  Pass 1  IDiag  1:
 E= -158.416849995760     Delta-E=        0.005646089785 Rises=F Damp=F
 DIIS: error= 5.03D-02 at cycle  18 NSaved=  18.
 NSaved=18 IEnMin=12 EnMin= -158.632935897791     IErMin= 2 ErrMin= 2.31D-02
 ErrMax= 5.03D-02  0.00D+00 EMaxC= 1.00D-01 BMatC= 1.73D-01 BMatP= 5.27D-02
 IDIUse=2 WtCom= 0.00D+00 WtEn= 1.00D+00
 EnCoef did   100 forward-backward iterations
 Rare condition: small coef for last iteration:  0.000D+00
 Coeff-En:   0.000D+00 0.000D+00 0.000D+00 0.000D+00 0.121D-01 0.000D+00
 Coeff-En:   0.000D+00 0.163D+00 0.220D+00 0.000D+00 0.201D-01 0.160D+00
 Coeff-En:   0.000D+00 0.000D+00 0.197D+00 0.737D-03 0.114D+00 0.113D+00
 Coeff:      0.000D+00 0.000D+00 0.000D+00 0.000D+00 0.121D-01 0.000D+00
 Coeff:      0.000D+00 0.163D+00 0.220D+00 0.000D+00 0.201D-01 0.160D+00
 Coeff:      0.000D+00 0.000D+00 0.197D+00 0.737D-03 0.114D+00 0.113D+00
 Gap=     0.005 Goal=   None    Shift=    0.000
 RMSDP=8.11D-03 MaxDP=2.06D-01 DE= 5.65D-03 OVMax= 7.60D-01

 Cycle  23  Pass 1  IDiag  1:
 E= -158.311554829819     Delta-E=        0.105295165941 Rises=F Damp=F
 DIIS: error= 5.16D-02 at cycle  19 NSaved=  19.
 NSaved=19 IEnMin=12 EnMin= -158.632935897791     IErMin= 2 ErrMin= 2.31D-02
 ErrMax= 5.16D-02  0.00D+00 EMaxC= 1.00D-01 BMatC= 1.92D-01 BMatP= 5.27D-02
 IDIUse=2 WtCom= 0.00D+00 WtEn= 1.00D+00
 EnCoef did   100 forward-backward iterations
 Rare condition: small coef for last iteration:  0.000D+00
 Coeff-En:   0.000D+00 0.000D+00 0.000D+00 0.000D+00 0.651D-02 0.000D+00
 Coeff-En:   0.000D+00 0.139D+00 0.269D+00 0.000D+00 0.622D-01 0.969D-01
 Coeff-En:   0.000D+00 0.000D+00 0.162D+00 0.000D+00 0.845D-01 0.976D-01
 Coeff-En:   0.817D-01
 Coeff:      0.000D+00 0.000D+00 0.000D+00 0.000D+00 0.651D-02 0.000D+00
 Coeff:      0.000D+00 0.139D+00 0.269D+00 0.000D+00 0.622D-01 0.969D-01
 Coeff:      0.000D+00 0.000D+00 0.162D+00 0.000D+00 0.845D-01 0.976D-01
 Coeff:      0.817D-01
 Gap=     0.001 Goal=   None    Shift=    0.000
 RMSDP=2.60D-03 MaxDP=6.71D-02 DE= 1.05D-01 OVMax= 3.04D-01

 Cycle  24  Pass 1  IDiag  1:
 E= -158.529004421300     Delta-E=       -0.217449591481 Rises=F Damp=F
 DIIS: error= 3.75D-02 at cycle  20 NSaved=  20.
 NSaved=20 IEnMin=12 EnMin= -158.632935897791     IErMin= 2 ErrMin= 2.31D-02
 ErrMax= 3.75D-02  0.00D+00 EMaxC= 1.00D-01 BMatC= 1.26D-01 BMatP= 5.27D-02
 IDIUse=2 WtCom= 0.00D+00 WtEn= 1.00D+00
 EnCoef did   100 forward-backward iterations
 Coeff-En:   0.000D+00 0.000D+00 0.000D+00 0.000D+00 0.210D-03 0.000D+00
 Coeff-En:   0.000D+00 0.534D-02 0.377D+00 0.000D+00 0.212D-02 0.414D+00
 Coeff-En:   0.000D+00 0.404D-01 0.120D+00 0.617D-04 0.395D-01 0.424D-04
 Coeff-En:   0.000D+00 0.375D-03
 Coeff:      0.000D+00 0.000D+00 0.000D+00 0.000D+00 0.210D-03 0.000D+00
 Coeff:      0.000D+00 0.534D-02 0.377D+00 0.000D+00 0.212D-02 0.414D+00
 Coeff:      0.000D+00 0.404D-01 0.120D+00 0.617D-04 0.395D-01 0.424D-04
 Coeff:      0.000D+00 0.375D-03
 Gap=    -0.001 Goal=   None    Shift=    0.000
 RMSDP=8.27D-03 MaxDP=2.07D-01 DE=-2.17D-01 OVMax= 9.33D-01

 Cycle  25  Pass 1  IDiag  1:
 E= -158.442139375744     Delta-E=        0.086865045557 Rises=F Damp=F
 DIIS: error= 4.94D-02 at cycle  21 NSaved=  20.
 NSaved=20 IEnMin=12 EnMin= -158.632935897791     IErMin= 2 ErrMin= 2.31D-02
 ErrMax= 4.94D-02  0.00D+00 EMaxC= 1.00D-01 BMatC= 1.68D-01 BMatP= 5.27D-02
 IDIUse=2 WtCom= 0.00D+00 WtEn= 1.00D+00
 EnCoef did   100 forward-backward iterations
 Coeff-En:   0.000D+00 0.000D+00 0.000D+00 0.000D+00 0.211D-03 0.000D+00
 Coeff-En:   0.000D+00 0.536D-02 0.400D+00 0.000D+00 0.213D-02 0.450D+00
 Coeff-En:   0.000D+00 0.521D-01 0.789D-01 0.620D-04 0.473D-03 0.426D-04
 Coeff-En:   0.377D-03 0.101D-01
 Coeff:      0.000D+00 0.000D+00 0.000D+00 0.000D+00 0.211D-03 0.000D+00
 Coeff:      0.000D+00 0.536D-02 0.400D+00 0.000D+00 0.213D-02 0.450D+00
 Coeff:      0.000D+00 0.521D-01 0.789D-01 0.620D-04 0.473D-03 0.426D-04
 Coeff:      0.377D-03 0.101D-01
 Gap=     0.003 Goal=   None    Shift=    0.000
 RMSDP=3.11D-04 MaxDP=7.37D-03 DE= 8.69D-02 OVMax= 3.50D-02

 Cycle  26  Pass 1  IDiag  1:
 E= -158.417232931591     Delta-E=        0.024906444152 Rises=F Damp=F
 DIIS: error= 5.12D-02 at cycle  22 NSaved=  20.
 NSaved=20 IEnMin=12 EnMin= -158.632935897791     IErMin= 2 ErrMin= 2.31D-02
 ErrMax= 5.12D-02  0.00D+00 EMaxC= 1.00D-01 BMatC= 1.74D-01 BMatP= 5.27D-02
 IDIUse=2 WtCom= 0.00D+00 WtEn= 1.00D+00
 EnCoef did   100 forward-backward iterations
 Coeff-En:   0.000D+00 0.000D+00 0.000D+00 0.000D+00 0.203D-03 0.000D+00
 Coeff-En:   0.000D+00 0.515D-02 0.400D+00 0.000D+00 0.205D-02 0.451D+00
 Coeff-En:   0.000D+00 0.510D-01 0.793D-01 0.596D-04 0.455D-03 0.409D-04
 Coeff-En:   0.104D-01 0.362D-03
 Coeff:      0.000D+00 0.000D+00 0.000D+00 0.000D+00 0.203D-03 0.000D+00
 Coeff:      0.000D+00 0.515D-02 0.400D+00 0.000D+00 0.205D-02 0.451D+00
 Coeff:      0.000D+00 0.510D-01 0.793D-01 0.596D-04 0.455D-03 0.409D-04
 Coeff:      0.104D-01 0.362D-03
 Gap=     0.003 Goal=   None    Shift=    0.000
 RMSDP=1.77D-05 MaxDP=3.99D-04 DE= 2.49D-02 OVMax= 1.64D-03

 Cycle  27  Pass 1  IDiag  1:
 E= -158.415399063942     Delta-E=        0.001833867649 Rises=F Damp=F
 DIIS: error= 5.12D-02 at cycle  23 NSaved=  20.
 NSaved=20 IEnMin=12 EnMin= -158.632935897791     IErMin= 2 ErrMin= 2.31D-02
 ErrMax= 5.12D-02  0.00D+00 EMaxC= 1.00D-01 BMatC= 1.74D-01 BMatP= 5.27D-02
 IDIUse=2 WtCom= 0.00D+00 WtEn= 1.00D+00
 EnCoef did   100 forward-backward iterations
 Coeff-En:   0.000D+00 0.000D+00 0.000D+00 0.000D+00 0.194D-03 0.000D+00
 Coeff-En:   0.000D+00 0.494D-02 0.403D+00 0.000D+00 0.196D-02 0.451D+00
 Coeff-En:   0.000D+00 0.639D-01 0.744D-01 0.571D-04 0.436D-03 0.392D-04
 Coeff-En:   0.977D-05 0.124D-03
 Coeff:      0.000D+00 0.000D+00 0.000D+00 0.000D+00 0.194D-03 0.000D+00
 Coeff:      0.000D+00 0.494D-02 0.403D+00 0.000D+00 0.196D-02 0.451D+00
 Coeff:      0.000D+00 0.639D-01 0.744D-01 0.571D-04 0.436D-03 0.392D-04
 Coeff:      0.977D-05 0.124D-03
 Gap=     0.003 Goal=   None    Shift=    0.000
 RMSDP=3.75D-05 MaxDP=6.82D-04 DE= 1.83D-03 OVMax= 4.56D-03

 Cycle  28  Pass 1  IDiag  1:
 E= -158.416621454542     Delta-E=       -0.001222390600 Rises=F Damp=F
 DIIS: error= 5.08D-02 at cycle  24 NSaved=  20.
 NSaved=20 IEnMin=12 EnMin= -158.632935897791     IErMin= 2 ErrMin= 2.31D-02
 ErrMax= 5.08D-02  0.00D+00 EMaxC= 1.00D-01 BMatC= 1.74D-01 BMatP= 5.27D-02
 IDIUse=2 WtCom= 0.00D+00 WtEn= 1.00D+00
 EnCoef did   100 forward-backward iterations
 Rare condition: small coef for last iteration:  0.942D-05
 Coeff-En:   0.000D+00 0.000D+00 0.000D+00 0.000D+00 0.120D-01 0.000D+00
 Coeff-En:   0.000D+00 0.163D+00 0.220D+00 0.000D+00 0.201D-01 0.159D+00
 Coeff-En:   0.000D+00 0.000D+00 0.197D+00 0.000D+00 0.115D+00 0.000D+00
 Coeff-En:   0.000D+00 0.113D+00
 Coeff:      0.000D+00 0.000D+00 0.000D+00 0.000D+00 0.120D-01 0.000D+00
 Coeff:      0.000D+00 0.163D+00 0.220D+00 0.000D+00 0.201D-01 0.159D+00
 Coeff:      0.000D+00 0.000D+00 0.197D+00 0.000D+00 0.115D+00 0.000D+00
 Coeff:      0.000D+00 0.113D+00
 Gap=     0.006 Goal=   None    Shift=    0.000
 RMSDP=8.10D-03 MaxDP=2.06D-01 DE=-1.22D-03 OVMax= 7.56D-01

 Cycle  29  Pass 1  IDiag  1:
 E= -158.312374486071     Delta-E=        0.104246968471 Rises=F Damp=F
 DIIS: error= 5.15D-02 at cycle  25 NSaved=  20.
 NSaved=20 IEnMin=12 EnMin= -158.632935897791     IErMin= 2 ErrMin= 2.31D-02
 ErrMax= 5.15D-02  0.00D+00 EMaxC= 1.00D-01 BMatC= 1.92D-01 BMatP= 5.27D-02
 IDIUse=2 WtCom= 0.00D+00 WtEn= 1.00D+00
 EnCoef did   100 forward-backward iterations
 Rare condition: small coef for last iteration:  0.000D+00
 Coeff-En:   0.000D+00 0.000D+00 0.000D+00 0.000D+00 0.649D-02 0.000D+00
 Coeff-En:   0.000D+00 0.139D+00 0.269D+00 0.000D+00 0.622D-01 0.970D-01
 Coeff-En:   0.000D+00 0.000D+00 0.162D+00 0.000D+00 0.847D-01 0.348D-03
 Coeff-En:   0.972D-01 0.815D-01
 Coeff:      0.000D+00 0.000D+00 0.000D+00 0.000D+00 0.649D-02 0.000D+00
 Coeff:      0.000D+00 0.139D+00 0.269D+00 0.000D+00 0.622D-01 0.970D-01
 Coeff:      0.000D+00 0.000D+00 0.162D+00 0.000D+00 0.847D-01 0.348D-03
 Coeff:      0.972D-01 0.815D-01
 Gap=     0.001 Goal=   None    Shift=    0.000
 RMSDP=2.61D-03 MaxDP=6.75D-02 DE= 1.04D-01 OVMax= 3.05D-01

 Cycle  30  Pass 1  IDiag  1:
 E= -158.530076118258     Delta-E=       -0.217701632187 Rises=F Damp=F
 DIIS: error= 3.72D-02 at cycle  26 NSaved=  20.
 NSaved=20 IEnMin=12 EnMin= -158.632935897791     IErMin= 2 ErrMin= 2.31D-02
 ErrMax= 3.72D-02  0.00D+00 EMaxC= 1.00D-01 BMatC= 1.25D-01 BMatP= 5.27D-02
 IDIUse=2 WtCom= 0.00D+00 WtEn= 1.00D+00
 EnCoef did   100 forward-backward iterations
 Coeff-En:   0.000D+00 0.000D+00 0.000D+00 0.000D+00 0.257D-03 0.000D+00
 Coeff-En:   0.000D+00 0.536D-02 0.377D+00 0.000D+00 0.232D-02 0.414D+00
 Coeff-En:   0.000D+00 0.403D-01 0.120D+00 0.103D-03 0.393D-01 0.127D-03
 Coeff-En:   0.000D+00 0.123D-02
 Coeff:      0.000D+00 0.000D+00 0.000D+00 0.000D+00 0.257D-03 0.000D+00
 Coeff:      0.000D+00 0.536D-02 0.377D+00 0.000D+00 0.232D-02 0.414D+00
 Coeff:      0.000D+00 0.403D-01 0.120D+00 0.103D-03 0.393D-01 0.127D-03
 Coeff:      0.000D+00 0.123D-02
 Gap=    -0.001 Goal=   None    Shift=    0.000
 RMSDP=8.27D-03 MaxDP=2.07D-01 DE=-2.18D-01 OVMax= 9.34D-01

 Cycle  31  Pass 1  IDiag  1:
 E= -158.442209355523     Delta-E=        0.087866762735 Rises=F Damp=F
 DIIS: error= 4.94D-02 at cycle  27 NSaved=  20.
 NSaved=20 IEnMin=12 EnMin= -158.632935897791     IErMin= 2 ErrMin= 2.31D-02
 ErrMax= 4.94D-02  0.00D+00 EMaxC= 1.00D-01 BMatC= 1.68D-01 BMatP= 5.27D-02
 IDIUse=2 WtCom= 0.00D+00 WtEn= 1.00D+00
 EnCoef did   100 forward-backward iterations
 Coeff-En:   0.000D+00 0.000D+00 0.000D+00 0.000D+00 0.258D-03 0.000D+00
 Coeff-En:   0.000D+00 0.537D-02 0.400D+00 0.000D+00 0.232D-02 0.449D+00
 Coeff-En:   0.000D+00 0.518D-01 0.789D-01 0.103D-03 0.325D-03 0.127D-03
 Coeff-En:   0.123D-02 0.101D-01
 Coeff:      0.000D+00 0.000D+00 0.000D+00 0.000D+00 0.258D-03 0.000D+00
 Coeff:      0.000D+00 0.537D-02 0.400D+00 0.000D+00 0.232D-02 0.449D+00
 Coeff:      0.000D+00 0.518D-01 0.789D-01 0.103D-03 0.325D-03 0.127D-03
 Coeff:      0.123D-02 0.101D-01
 Gap=     0.003 Goal=   None    Shift=    0.000
 RMSDP=3.17D-04 MaxDP=7.54D-03 DE= 8.79D-02 OVMax= 3.55D-02

 Cycle  32  Pass 1  IDiag  1:
 E= -158.416287909518     Delta-E=        0.025921446005 Rises=F Damp=F
 DIIS: error= 5.12D-02 at cycle  28 NSaved=  20.
 NSaved=20 IEnMin=12 EnMin= -158.632935897791     IErMin= 2 ErrMin= 2.31D-02
 ErrMax= 5.12D-02  0.00D+00 EMaxC= 1.00D-01 BMatC= 1.74D-01 BMatP= 5.27D-02
 IDIUse=2 WtCom= 0.00D+00 WtEn= 1.00D+00
 EnCoef did   100 forward-backward iterations
 Coeff-En:   0.000D+00 0.000D+00 0.000D+00 0.000D+00 0.247D-03 0.000D+00
 Coeff-En:   0.000D+00 0.516D-02 0.400D+00 0.000D+00 0.223D-02 0.450D+00
 Coeff-En:   0.000D+00 0.494D-01 0.800D-01 0.991D-04 0.312D-03 0.122D-03
 Coeff-En:   0.116D-01 0.336D-03
 Coeff:      0.000D+00 0.000D+00 0.000D+00 0.000D+00 0.247D-03 0.000D+00
 Coeff:      0.000D+00 0.516D-02 0.400D+00 0.000D+00 0.223D-02 0.450D+00
 Coeff:      0.000D+00 0.494D-01 0.800D-01 0.991D-04 0.312D-03 0.122D-03
 Coeff:      0.116D-01 0.336D-03
 Gap=     0.003 Goal=   None    Shift=    0.000
 RMSDP=1.22D-05 MaxDP=2.73D-04 DE= 2.59D-02 OVMax= 1.24D-03

 Cycle  33  Pass 1  IDiag  1:
 E= -158.417456132071     Delta-E=       -0.001168222554 Rises=F Damp=F
 DIIS: error= 5.11D-02 at cycle  29 NSaved=  20.
 NSaved=20 IEnMin=12 EnMin= -158.632935897791     IErMin= 2 ErrMin= 2.31D-02
 ErrMax= 5.11D-02  0.00D+00 EMaxC= 1.00D-01 BMatC= 1.74D-01 BMatP= 5.27D-02
 IDIUse=2 WtCom= 0.00D+00 WtEn= 1.00D+00
 EnCoef did   100 forward-backward iterations
 Coeff-En:   0.000D+00 0.000D+00 0.000D+00 0.000D+00 0.237D-03 0.000D+00
 Coeff-En:   0.000D+00 0.494D-02 0.403D+00 0.000D+00 0.214D-02 0.451D+00
 Coeff-En:   0.000D+00 0.635D-01 0.747D-01 0.949D-04 0.299D-03 0.117D-03
 Coeff-En:   0.512D-04 0.251D-03
 Coeff:      0.000D+00 0.000D+00 0.000D+00 0.000D+00 0.237D-03 0.000D+00
 Coeff:      0.000D+00 0.494D-02 0.403D+00 0.000D+00 0.214D-02 0.451D+00
 Coeff:      0.000D+00 0.635D-01 0.747D-01 0.949D-04 0.299D-03 0.117D-03
 Coeff:      0.512D-04 0.251D-03
 Gap=     0.003 Goal=   None    Shift=    0.000
 RMSDP=2.25D-05 MaxDP=3.65D-04 DE=-1.17D-03 OVMax= 2.20D-03

 Cycle  34  Pass 1  IDiag  1:
 E= -158.416720310870     Delta-E=        0.000735821201 Rises=F Damp=F
 DIIS: error= 5.08D-02 at cycle  30 NSaved=  20.
 NSaved=20 IEnMin=12 EnMin= -158.632935897791     IErMin= 2 ErrMin= 2.31D-02
 ErrMax= 5.08D-02  0.00D+00 EMaxC= 1.00D-01 BMatC= 1.74D-01 BMatP= 5.27D-02
 IDIUse=2 WtCom= 0.00D+00 WtEn= 1.00D+00
 EnCoef did   100 forward-backward iterations
 Coeff-En:   0.000D+00 0.000D+00 0.000D+00 0.000D+00 0.228D-03 0.000D+00
 Coeff-En:   0.000D+00 0.476D-02 0.403D+00 0.000D+00 0.206D-02 0.451D+00
 Coeff-En:   0.000D+00 0.634D-01 0.746D-01 0.914D-04 0.288D-03 0.113D-03
 Coeff-En:   0.242D-03 0.493D-04
 Coeff:      0.000D+00 0.000D+00 0.000D+00 0.000D+00 0.228D-03 0.000D+00
 Coeff:      0.000D+00 0.476D-02 0.403D+00 0.000D+00 0.206D-02 0.451D+00
 Coeff:      0.000D+00 0.634D-01 0.746D-01 0.914D-04 0.288D-03 0.113D-03
 Coeff:      0.242D-03 0.493D-04
 Gap=     0.003 Goal=   None    Shift=    0.000
 RMSDP=2.26D-05 MaxDP=5.01D-04 DE= 7.36D-04 OVMax= 2.55D-03

 Cycle  35  Pass 1  IDiag  1:
 E= -158.414944886846     Delta-E=        0.001775424024 Rises=F Damp=F
 DIIS: error= 5.09D-02 at cycle  31 NSaved=  20.
 NSaved=20 IEnMin=12 EnMin= -158.632935897791     IErMin= 2 ErrMin= 2.31D-02
 ErrMax= 5.09D-02  0.00D+00 EMaxC= 1.00D-01 BMatC= 1.74D-01 BMatP= 5.27D-02
 IDIUse=2 WtCom= 0.00D+00 WtEn= 1.00D+00
 EnCoef did   100 forward-backward iterations
 Coeff-En:   0.000D+00 0.000D+00 0.000D+00 0.000D+00 0.220D-03 0.000D+00
 Coeff-En:   0.000D+00 0.459D-02 0.403D+00 0.000D+00 0.198D-02 0.452D+00
 Coeff-En:   0.000D+00 0.633D-01 0.746D-01 0.882D-04 0.278D-03 0.109D-03
 Coeff-En:   0.475D-04 0.233D-03
 Coeff:      0.000D+00 0.000D+00 0.000D+00 0.000D+00 0.220D-03 0.000D+00
 Coeff:      0.000D+00 0.459D-02 0.403D+00 0.000D+00 0.198D-02 0.452D+00
 Coeff:      0.000D+00 0.633D-01 0.746D-01 0.882D-04 0.278D-03 0.109D-03
 Coeff:      0.475D-04 0.233D-03
 Gap=     0.003 Goal=   None    Shift=    0.000
 RMSDP=8.18D-06 MaxDP=1.51D-04 DE= 1.78D-03 OVMax= 9.46D-04

 Cycle  36  Pass 1  IDiag  1:
 E= -158.415914566219     Delta-E=       -0.000969679373 Rises=F Damp=F
 DIIS: error= 5.10D-02 at cycle  32 NSaved=  20.
 NSaved=20 IEnMin=12 EnMin= -158.632935897791     IErMin= 2 ErrMin= 2.31D-02
 ErrMax= 5.10D-02  0.00D+00 EMaxC= 1.00D-01 BMatC= 1.74D-01 BMatP= 5.27D-02
 IDIUse=2 WtCom= 0.00D+00 WtEn= 1.00D+00
 EnCoef did   100 forward-backward iterations
 Coeff-En:   0.000D+00 0.000D+00 0.000D+00 0.000D+00 0.213D-03 0.000D+00
 Coeff-En:   0.000D+00 0.444D-02 0.403D+00 0.000D+00 0.192D-02 0.452D+00
 Coeff-En:   0.000D+00 0.632D-01 0.746D-01 0.852D-04 0.268D-03 0.105D-03
 Coeff-En:   0.225D-03 0.459D-04
 Coeff:      0.000D+00 0.000D+00 0.000D+00 0.000D+00 0.213D-03 0.000D+00
 Coeff:      0.000D+00 0.444D-02 0.403D+00 0.000D+00 0.192D-02 0.452D+00
 Coeff:      0.000D+00 0.632D-01 0.746D-01 0.852D-04 0.268D-03 0.105D-03
 Coeff:      0.225D-03 0.459D-04
 Gap=     0.003 Goal=   None    Shift=    0.000
 RMSDP=1.44D-05 MaxDP=2.47D-04 DE=-9.70D-04 OVMax= 1.72D-03

 Cycle  37  Pass 1  IDiag  1:
 E= -158.416239648424     Delta-E=       -0.000325082205 Rises=F Damp=F
 DIIS: error= 5.08D-02 at cycle  33 NSaved=  20.
 NSaved=20 IEnMin=12 EnMin= -158.632935897791     IErMin= 2 ErrMin= 2.31D-02
 ErrMax= 5.08D-02  0.00D+00 EMaxC= 1.00D-01 BMatC= 1.74D-01 BMatP= 5.27D-02
 IDIUse=2 WtCom= 0.00D+00 WtEn= 1.00D+00
 EnCoef did   100 forward-backward iterations
 Coeff-En:   0.000D+00 0.000D+00 0.000D+00 0.000D+00 0.206D-03 0.000D+00
 Coeff-En:   0.000D+00 0.429D-02 0.403D+00 0.000D+00 0.185D-02 0.452D+00
 Coeff-En:   0.000D+00 0.631D-01 0.746D-01 0.824D-04 0.259D-03 0.101D-03
 Coeff-En:   0.444D-04 0.218D-03
 Coeff:      0.000D+00 0.000D+00 0.000D+00 0.000D+00 0.206D-03 0.000D+00
 Coeff:      0.000D+00 0.429D-02 0.403D+00 0.000D+00 0.185D-02 0.452D+00
 Coeff:      0.000D+00 0.631D-01 0.746D-01 0.824D-04 0.259D-03 0.101D-03
 Coeff:      0.444D-04 0.218D-03
 Gap=     0.003 Goal=   None    Shift=    0.000
 RMSDP=2.01D-05 MaxDP=4.47D-04 DE=-3.25D-04 OVMax= 2.28D-03

 Cycle  38  Pass 1  IDiag  1:
 E= -158.414660200135     Delta-E=        0.001579448289 Rises=F Damp=F
 DIIS: error= 5.09D-02 at cycle  34 NSaved=  20.
 NSaved=20 IEnMin=12 EnMin= -158.632935897791     IErMin= 2 ErrMin= 2.31D-02
 ErrMax= 5.09D-02  0.00D+00 EMaxC= 1.00D-01 BMatC= 1.74D-01 BMatP= 5.27D-02
 IDIUse=2 WtCom= 0.00D+00 WtEn= 1.00D+00
 EnCoef did   100 forward-backward iterations
 Coeff-En:   0.000D+00 0.000D+00 0.000D+00 0.000D+00 0.199D-03 0.000D+00
 Coeff-En:   0.000D+00 0.415D-02 0.403D+00 0.000D+00 0.179D-02 0.452D+00
 Coeff-En:   0.000D+00 0.631D-01 0.745D-01 0.798D-04 0.251D-03 0.982D-04
 Coeff-En:   0.211D-03 0.430D-04
 Coeff:      0.000D+00 0.000D+00 0.000D+00 0.000D+00 0.199D-03 0.000D+00
 Coeff:      0.000D+00 0.415D-02 0.403D+00 0.000D+00 0.179D-02 0.452D+00
 Coeff:      0.000D+00 0.631D-01 0.745D-01 0.798D-04 0.251D-03 0.982D-04
 Coeff:      0.211D-03 0.430D-04
 Gap=     0.003 Goal=   None    Shift=    0.000
 RMSDP=7.46D-06 MaxDP=1.38D-04 DE= 1.58D-03 OVMax= 8.62D-04

 Cycle  39  Pass 1  IDiag  1:
 E= -158.415544892390     Delta-E=       -0.000884692255 Rises=F Damp=F
 DIIS: error= 5.10D-02 at cycle  35 NSaved=  20.
 NSaved=20 IEnMin=12 EnMin= -158.632935897791     IErMin= 2 ErrMin= 2.31D-02
 ErrMax= 5.10D-02  0.00D+00 EMaxC= 1.00D-01 BMatC= 1.74D-01 BMatP= 5.27D-02
 IDIUse=2 WtCom= 0.00D+00 WtEn= 1.00D+00
 EnCoef did   100 forward-backward iterations
 Coeff-En:   0.000D+00 0.000D+00 0.000D+00 0.000D+00 0.193D-03 0.000D+00
 Coeff-En:   0.000D+00 0.403D-02 0.403D+00 0.000D+00 0.174D-02 0.452D+00
 Coeff-En:   0.000D+00 0.630D-01 0.745D-01 0.773D-04 0.243D-03 0.951D-04
 Coeff-En:   0.417D-04 0.204D-03
 Coeff:      0.000D+00 0.000D+00 0.000D+00 0.000D+00 0.193D-03 0.000D+00
 Coeff:      0.000D+00 0.403D-02 0.403D+00 0.000D+00 0.174D-02 0.452D+00
 Coeff:      0.000D+00 0.630D-01 0.745D-01 0.773D-04 0.243D-03 0.951D-04
 Coeff:      0.417D-04 0.204D-03
 Gap=     0.003 Goal=   None    Shift=    0.000
 RMSDP=1.31D-05 MaxDP=2.25D-04 DE=-8.85D-04 OVMax= 1.57D-03

 Cycle  40  Pass 1  IDiag  1:
 E= -158.415849653768     Delta-E=       -0.000304761378 Rises=F Damp=F
 DIIS: error= 5.08D-02 at cycle  36 NSaved=  20.
 NSaved=20 IEnMin=12 EnMin= -158.632935897791     IErMin= 2 ErrMin= 2.31D-02
 ErrMax= 5.08D-02  0.00D+00 EMaxC= 1.00D-01 BMatC= 1.74D-01 BMatP= 5.27D-02
 IDIUse=2 WtCom= 0.00D+00 WtEn= 1.00D+00
 EnCoef did   100 forward-backward iterations
 Coeff-En:   0.000D+00 0.000D+00 0.000D+00 0.000D+00 0.187D-03 0.000D+00
 Coeff-En:   0.000D+00 0.390D-02 0.404D+00 0.000D+00 0.169D-02 0.453D+00
 Coeff-En:   0.000D+00 0.629D-01 0.745D-01 0.750D-04 0.236D-03 0.923D-04
 Coeff-En:   0.198D-03 0.404D-04
 Coeff:      0.000D+00 0.000D+00 0.000D+00 0.000D+00 0.187D-03 0.000D+00
 Coeff:      0.000D+00 0.390D-02 0.404D+00 0.000D+00 0.169D-02 0.453D+00
 Coeff:      0.000D+00 0.629D-01 0.745D-01 0.750D-04 0.236D-03 0.923D-04
 Coeff:      0.198D-03 0.404D-04
 Gap=     0.003 Goal=   None    Shift=    0.000
 RMSDP=1.82D-05 MaxDP=4.03D-04 DE=-3.05D-04 OVMax= 2.06D-03

 Cycle  41  Pass 1  IDiag  1:
 E= -158.414427321073     Delta-E=        0.001422332695 Rises=F Damp=F
 DIIS: error= 5.09D-02 at cycle  37 NSaved=  20.
 NSaved=20 IEnMin=12 EnMin= -158.632935897791     IErMin= 2 ErrMin= 2.31D-02
 ErrMax= 5.09D-02  0.00D+00 EMaxC= 1.00D-01 BMatC= 1.74D-01 BMatP= 5.27D-02
 IDIUse=2 WtCom= 0.00D+00 WtEn= 1.00D+00
 EnCoef did   100 forward-backward iterations
 Coeff-En:   0.000D+00 0.000D+00 0.000D+00 0.000D+00 0.182D-03 0.000D+00
 Coeff-En:   0.000D+00 0.379D-02 0.404D+00 0.000D+00 0.164D-02 0.453D+00
 Coeff-En:   0.000D+00 0.629D-01 0.745D-01 0.728D-04 0.229D-03 0.896D-04
 Coeff-En:   0.392D-04 0.192D-03
 Coeff:      0.000D+00 0.000D+00 0.000D+00 0.000D+00 0.182D-03 0.000D+00
 Coeff:      0.000D+00 0.379D-02 0.404D+00 0.000D+00 0.164D-02 0.453D+00
 Coeff:      0.000D+00 0.629D-01 0.745D-01 0.728D-04 0.229D-03 0.896D-04
 Coeff:      0.392D-04 0.192D-03
 Gap=     0.003 Goal=   None    Shift=    0.000
 RMSDP=6.85D-06 MaxDP=1.27D-04 DE= 1.42D-03 OVMax= 7.92D-04

 Cycle  42  Pass 1  IDiag  1:
 E= -158.415240407586     Delta-E=       -0.000813086513 Rises=F Damp=F
 DIIS: error= 5.09D-02 at cycle  38 NSaved=  20.
 NSaved=20 IEnMin=12 EnMin= -158.632935897791     IErMin= 2 ErrMin= 2.31D-02
 ErrMax= 5.09D-02  0.00D+00 EMaxC= 1.00D-01 BMatC= 1.74D-01 BMatP= 5.27D-02
 IDIUse=2 WtCom= 0.00D+00 WtEn= 1.00D+00
 EnCoef did   100 forward-backward iterations
 Coeff-En:   0.000D+00 0.000D+00 0.000D+00 0.000D+00 0.177D-03 0.000D+00
 Coeff-En:   0.000D+00 0.368D-02 0.404D+00 0.000D+00 0.159D-02 0.453D+00
 Coeff-En:   0.000D+00 0.628D-01 0.745D-01 0.707D-04 0.223D-03 0.870D-04
 Coeff-En:   0.187D-03 0.381D-04
 Coeff:      0.000D+00 0.000D+00 0.000D+00 0.000D+00 0.177D-03 0.000D+00
 Coeff:      0.000D+00 0.368D-02 0.404D+00 0.000D+00 0.159D-02 0.453D+00
 Coeff:      0.000D+00 0.628D-01 0.745D-01 0.707D-04 0.223D-03 0.870D-04
 Coeff:      0.187D-03 0.381D-04
 Gap=     0.003 Goal=   None    Shift=    0.000
 RMSDP=1.20D-05 MaxDP=2.07D-04 DE=-8.13D-04 OVMax= 1.44D-03

 Cycle  43  Pass 1  IDiag  1:
 E= -158.415526800500     Delta-E=       -0.000286392914 Rises=F Damp=F
 DIIS: error= 5.08D-02 at cycle  39 NSaved=  20.
 NSaved=20 IEnMin=12 EnMin= -158.632935897791     IErMin= 2 ErrMin= 2.31D-02
 ErrMax= 5.08D-02  0.00D+00 EMaxC= 1.00D-01 BMatC= 1.74D-01 BMatP= 5.27D-02
 IDIUse=2 WtCom= 0.00D+00 WtEn= 1.00D+00
 EnCoef did   100 forward-backward iterations
 Coeff-En:   0.000D+00 0.000D+00 0.000D+00 0.000D+00 0.172D-03 0.000D+00
 Coeff-En:   0.000D+00 0.358D-02 0.404D+00 0.000D+00 0.155D-02 0.453D+00
 Coeff-En:   0.000D+00 0.627D-01 0.745D-01 0.688D-04 0.216D-03 0.846D-04
 Coeff-En:   0.371D-04 0.182D-03
 Coeff:      0.000D+00 0.000D+00 0.000D+00 0.000D+00 0.172D-03 0.000D+00
 Coeff:      0.000D+00 0.358D-02 0.404D+00 0.000D+00 0.155D-02 0.453D+00
 Coeff:      0.000D+00 0.627D-01 0.745D-01 0.688D-04 0.216D-03 0.846D-04
 Coeff:      0.371D-04 0.182D-03
 Gap=     0.003 Goal=   None    Shift=    0.000
 RMSDP=1.65D-05 MaxDP=3.67D-04 DE=-2.86D-04 OVMax= 1.88D-03

 Cycle  44  Pass 1  IDiag  1:
 E= -158.414233335566     Delta-E=        0.001293464934 Rises=F Damp=F
 DIIS: error= 5.09D-02 at cycle  40 NSaved=  20.
 NSaved=20 IEnMin=12 EnMin= -158.632935897791     IErMin= 2 ErrMin= 2.31D-02
 ErrMax= 5.09D-02  0.00D+00 EMaxC= 1.00D-01 BMatC= 1.74D-01 BMatP= 5.27D-02
 IDIUse=2 WtCom= 0.00D+00 WtEn= 1.00D+00
 EnCoef did   100 forward-backward iterations
 Coeff-En:   0.000D+00 0.000D+00 0.000D+00 0.000D+00 0.167D-03 0.000D+00
 Coeff-En:   0.000D+00 0.349D-02 0.404D+00 0.000D+00 0.151D-02 0.453D+00
 Coeff-En:   0.000D+00 0.627D-01 0.744D-01 0.670D-04 0.211D-03 0.824D-04
 Coeff-En:   0.177D-03 0.361D-04
 Coeff:      0.000D+00 0.000D+00 0.000D+00 0.000D+00 0.167D-03 0.000D+00
 Coeff:      0.000D+00 0.349D-02 0.404D+00 0.000D+00 0.151D-02 0.453D+00
 Coeff:      0.000D+00 0.627D-01 0.744D-01 0.670D-04 0.211D-03 0.824D-04
 Coeff:      0.177D-03 0.361D-04
 Gap=     0.003 Goal=   None    Shift=    0.000
 RMSDP=5.88D-06 MaxDP=1.12D-04 DE= 1.29D-03 OVMax= 7.09D-04

 Cycle  45  Pass 1  IDiag  1:
 E= -158.413982720459     Delta-E=        0.000250615107 Rises=F Damp=F
 DIIS: error= 5.09D-02 at cycle  41 NSaved=  20.
 NSaved=20 IEnMin=12 EnMin= -158.632935897791     IErMin= 2 ErrMin= 2.31D-02
 ErrMax= 5.09D-02  0.00D+00 EMaxC= 1.00D-01 BMatC= 1.74D-01 BMatP= 5.27D-02
 IDIUse=2 WtCom= 0.00D+00 WtEn= 1.00D+00
 EnCoef did   100 forward-backward iterations
 Coeff-En:   0.000D+00 0.000D+00 0.000D+00 0.000D+00 0.163D-03 0.000D+00
 Coeff-En:   0.000D+00 0.340D-02 0.404D+00 0.000D+00 0.147D-02 0.453D+00
 Coeff-En:   0.000D+00 0.626D-01 0.744D-01 0.652D-04 0.205D-03 0.803D-04
 Coeff-En:   0.352D-04 0.172D-03
 Coeff:      0.000D+00 0.000D+00 0.000D+00 0.000D+00 0.163D-03 0.000D+00
 Coeff:      0.000D+00 0.340D-02 0.404D+00 0.000D+00 0.147D-02 0.453D+00
 Coeff:      0.000D+00 0.626D-01 0.744D-01 0.652D-04 0.205D-03 0.803D-04
 Coeff:      0.352D-04 0.172D-03
 Gap=     0.003 Goal=   None    Shift=    0.000
 RMSDP=2.17D-06 MaxDP=3.91D-05 DE= 2.51D-04 OVMax= 2.59D-04

 Cycle  46  Pass 1  IDiag  1:
 E= -158.413898493692     Delta-E=        0.000084226767 Rises=F Damp=F
 DIIS: error= 5.10D-02 at cycle  42 NSaved=  20.
 NSaved=20 IEnMin=12 EnMin= -158.632935897791     IErMin= 2 ErrMin= 2.31D-02
 ErrMax= 5.10D-02  0.00D+00 EMaxC= 1.00D-01 BMatC= 1.74D-01 BMatP= 5.27D-02
 IDIUse=2 WtCom= 0.00D+00 WtEn= 1.00D+00
 EnCoef did   100 forward-backward iterations
 Coeff-En:   0.000D+00 0.000D+00 0.000D+00 0.000D+00 0.159D-03 0.000D+00
 Coeff-En:   0.000D+00 0.331D-02 0.404D+00 0.000D+00 0.143D-02 0.454D+00
 Coeff-En:   0.000D+00 0.626D-01 0.744D-01 0.636D-04 0.200D-03 0.783D-04
 Coeff-En:   0.168D-03 0.343D-04
 Coeff:      0.000D+00 0.000D+00 0.000D+00 0.000D+00 0.159D-03 0.000D+00
 Coeff:      0.000D+00 0.331D-02 0.404D+00 0.000D+00 0.143D-02 0.454D+00
 Coeff:      0.000D+00 0.626D-01 0.744D-01 0.636D-04 0.200D-03 0.783D-04
 Coeff:      0.168D-03 0.343D-04
 Gap=     0.003 Goal=   None    Shift=    0.000
 RMSDP=6.08D-07 MaxDP=1.30D-05 DE= 8.42D-05 OVMax= 5.77D-05

 Cycle  47  Pass 1  IDiag  1:
 E= -158.413847119491     Delta-E=        0.000051374200 Rises=F Damp=F
 DIIS: error= 5.10D-02 at cycle  43 NSaved=  20.
 NSaved=20 IEnMin=12 EnMin= -158.632935897791     IErMin= 2 ErrMin= 2.31D-02
 ErrMax= 5.10D-02  0.00D+00 EMaxC= 1.00D-01 BMatC= 1.74D-01 BMatP= 5.27D-02
 IDIUse=2 WtCom= 0.00D+00 WtEn= 1.00D+00
 EnCoef did   100 forward-backward iterations
 Coeff-En:   0.000D+00 0.000D+00 0.000D+00 0.000D+00 0.155D-03 0.000D+00
 Coeff-En:   0.000D+00 0.323D-02 0.404D+00 0.000D+00 0.140D-02 0.454D+00
 Coeff-En:   0.000D+00 0.625D-01 0.744D-01 0.621D-04 0.195D-03 0.764D-04
 Coeff-En:   0.335D-04 0.164D-03
 Coeff:      0.000D+00 0.000D+00 0.000D+00 0.000D+00 0.155D-03 0.000D+00
 Coeff:      0.000D+00 0.323D-02 0.404D+00 0.000D+00 0.140D-02 0.454D+00
 Coeff:      0.000D+00 0.625D-01 0.744D-01 0.621D-04 0.195D-03 0.764D-04
 Coeff:      0.335D-04 0.164D-03
 Gap=     0.003 Goal=   None    Shift=    0.000
 RMSDP=4.23D-07 MaxDP=7.41D-06 DE= 5.14D-05 OVMax= 4.89D-05

 Cycle  48  Pass 1  IDiag  1:
 E= -158.413804662717     Delta-E=        0.000042456774 Rises=F Damp=F
 DIIS: error= 5.10D-02 at cycle  44 NSaved=  20.
 NSaved=20 IEnMin=12 EnMin= -158.632935897791     IErMin= 2 ErrMin= 2.31D-02
 ErrMax= 5.10D-02  0.00D+00 EMaxC= 1.00D-01 BMatC= 1.74D-01 BMatP= 5.27D-02
 IDIUse=2 WtCom= 0.00D+00 WtEn= 1.00D+00
 EnCoef did   100 forward-backward iterations
 Coeff-En:   0.000D+00 0.000D+00 0.000D+00 0.000D+00 0.151D-03 0.000D+00
 Coeff-En:   0.000D+00 0.316D-02 0.404D+00 0.000D+00 0.136D-02 0.454D+00
 Coeff-En:   0.000D+00 0.625D-01 0.744D-01 0.606D-04 0.191D-03 0.746D-04
 Coeff-En:   0.160D-03 0.327D-04
 Coeff:      0.000D+00 0.000D+00 0.000D+00 0.000D+00 0.151D-03 0.000D+00
 Coeff:      0.000D+00 0.316D-02 0.404D+00 0.000D+00 0.136D-02 0.454D+00
 Coeff:      0.000D+00 0.625D-01 0.744D-01 0.606D-04 0.191D-03 0.746D-04
 Coeff:      0.160D-03 0.327D-04
 Gap=     0.003 Goal=   None    Shift=    0.000
 RMSDP=4.03D-07 MaxDP=7.06D-06 DE= 4.25D-05 OVMax= 4.66D-05

 Cycle  49  Pass 1  IDiag  1:
 E= -158.413764240112     Delta-E=        0.000040422604 Rises=F Damp=F
 DIIS: error= 5.10D-02 at cycle  45 NSaved=  20.
 NSaved=20 IEnMin=12 EnMin= -158.632935897791     IErMin= 2 ErrMin= 2.31D-02
 ErrMax= 5.10D-02  0.00D+00 EMaxC= 1.00D-01 BMatC= 1.74D-01 BMatP= 5.27D-02
 IDIUse=2 WtCom= 0.00D+00 WtEn= 1.00D+00
 EnCoef did   100 forward-backward iterations
 Coeff-En:   0.000D+00 0.000D+00 0.000D+00 0.000D+00 0.148D-03 0.000D+00
 Coeff-En:   0.000D+00 0.309D-02 0.404D+00 0.000D+00 0.133D-02 0.454D+00
 Coeff-En:   0.000D+00 0.624D-01 0.744D-01 0.592D-04 0.186D-03 0.729D-04
 Coeff-En:   0.319D-04 0.157D-03
 Coeff:      0.000D+00 0.000D+00 0.000D+00 0.000D+00 0.148D-03 0.000D+00
 Coeff:      0.000D+00 0.309D-02 0.404D+00 0.000D+00 0.133D-02 0.454D+00
 Coeff:      0.000D+00 0.624D-01 0.744D-01 0.592D-04 0.186D-03 0.729D-04
 Coeff:      0.319D-04 0.157D-03
 Gap=     0.003 Goal=   None    Shift=    0.000
 RMSDP=3.85D-07 MaxDP=6.74D-06 DE= 4.04D-05 OVMax= 4.45D-05

 Cycle  50  Pass 1  IDiag  1:
 E= -158.413725676202     Delta-E=        0.000038563910 Rises=F Damp=F
 DIIS: error= 5.10D-02 at cycle  46 NSaved=  20.
 NSaved=20 IEnMin=12 EnMin= -158.632935897791     IErMin= 2 ErrMin= 2.31D-02
 ErrMax= 5.10D-02  0.00D+00 EMaxC= 1.00D-01 BMatC= 1.74D-01 BMatP= 5.27D-02
 IDIUse=2 WtCom= 0.00D+00 WtEn= 1.00D+00
 EnCoef did   100 forward-backward iterations
 Coeff-En:   0.000D+00 0.000D+00 0.000D+00 0.000D+00 0.145D-03 0.000D+00
 Coeff-En:   0.000D+00 0.302D-02 0.404D+00 0.000D+00 0.130D-02 0.454D+00
 Coeff-En:   0.000D+00 0.624D-01 0.744D-01 0.579D-04 0.182D-03 0.713D-04
 Coeff-En:   0.153D-03 0.312D-04
 Coeff:      0.000D+00 0.000D+00 0.000D+00 0.000D+00 0.145D-03 0.000D+00
 Coeff:      0.000D+00 0.302D-02 0.404D+00 0.000D+00 0.130D-02 0.454D+00
 Coeff:      0.000D+00 0.624D-01 0.744D-01 0.579D-04 0.182D-03 0.713D-04
 Coeff:      0.153D-03 0.312D-04
 Gap=     0.003 Goal=   None    Shift=    0.000
 RMSDP=3.67D-07 MaxDP=6.43D-06 DE= 3.86D-05 OVMax= 4.24D-05

 Cycle  51  Pass 1  IDiag  1:
 E= -158.413688867132     Delta-E=        0.000036809071 Rises=F Damp=F
 DIIS: error= 5.10D-02 at cycle  47 NSaved=  20.
 NSaved=20 IEnMin=12 EnMin= -158.632935897791     IErMin= 2 ErrMin= 2.31D-02
 ErrMax= 5.10D-02  0.00D+00 EMaxC= 1.00D-01 BMatC= 1.74D-01 BMatP= 5.27D-02
 IDIUse=2 WtCom= 0.00D+00 WtEn= 1.00D+00
 EnCoef did   100 forward-backward iterations
 Coeff-En:   0.000D+00 0.000D+00 0.000D+00 0.000D+00 0.141D-03 0.000D+00
 Coeff-En:   0.000D+00 0.295D-02 0.404D+00 0.000D+00 0.127D-02 0.454D+00
 Coeff-En:   0.000D+00 0.624D-01 0.744D-01 0.566D-04 0.178D-03 0.697D-04
 Coeff-En:   0.305D-04 0.150D-03
 Coeff:      0.000D+00 0.000D+00 0.000D+00 0.000D+00 0.141D-03 0.000D+00
 Coeff:      0.000D+00 0.295D-02 0.404D+00 0.000D+00 0.127D-02 0.454D+00
 Coeff:      0.000D+00 0.624D-01 0.744D-01 0.566D-04 0.178D-03 0.697D-04
 Coeff:      0.305D-04 0.150D-03
 Gap=     0.003 Goal=   None    Shift=    0.000
 RMSDP=3.51D-07 MaxDP=6.15D-06 DE= 3.68D-05 OVMax= 4.06D-05

 Cycle  52  Pass 1  IDiag  1:
 E= -158.413653675323     Delta-E=        0.000035191808 Rises=F Damp=F
 DIIS: error= 5.09D-02 at cycle  48 NSaved=  20.
 NSaved=20 IEnMin=12 EnMin= -158.632935897791     IErMin= 2 ErrMin= 2.31D-02
 ErrMax= 5.09D-02  0.00D+00 EMaxC= 1.00D-01 BMatC= 1.74D-01 BMatP= 5.27D-02
 IDIUse=2 WtCom= 0.00D+00 WtEn= 1.00D+00
 EnCoef did   100 forward-backward iterations
 Coeff-En:   0.000D+00 0.000D+00 0.000D+00 0.000D+00 0.138D-03 0.000D+00
 Coeff-En:   0.000D+00 0.289D-02 0.404D+00 0.000D+00 0.125D-02 0.454D+00
 Coeff-En:   0.000D+00 0.623D-01 0.744D-01 0.554D-04 0.174D-03 0.682D-04
 Coeff-En:   0.147D-03 0.299D-04
 Coeff:      0.000D+00 0.000D+00 0.000D+00 0.000D+00 0.138D-03 0.000D+00
 Coeff:      0.000D+00 0.289D-02 0.404D+00 0.000D+00 0.125D-02 0.454D+00
 Coeff:      0.000D+00 0.623D-01 0.744D-01 0.554D-04 0.174D-03 0.682D-04
 Coeff:      0.147D-03 0.299D-04
 Gap=     0.003 Goal=   None    Shift=    0.000
 RMSDP=3.36D-07 MaxDP=5.88D-06 DE= 3.52D-05 OVMax= 3.88D-05

 Cycle  53  Pass 1  IDiag  1:
 E= -158.413620015413     Delta-E=        0.000033659911 Rises=F Damp=F
 DIIS: error= 5.09D-02 at cycle  49 NSaved=  20.
 NSaved=20 IEnMin=12 EnMin= -158.632935897791     IErMin= 2 ErrMin= 2.31D-02
 ErrMax= 5.09D-02  0.00D+00 EMaxC= 1.00D-01 BMatC= 1.74D-01 BMatP= 5.27D-02
 IDIUse=2 WtCom= 0.00D+00 WtEn= 1.00D+00
 EnCoef did   100 forward-backward iterations
 Coeff-En:   0.000D+00 0.000D+00 0.000D+00 0.000D+00 0.135D-03 0.000D+00
 Coeff-En:   0.000D+00 0.283D-02 0.404D+00 0.000D+00 0.122D-02 0.454D+00
 Coeff-En:   0.000D+00 0.623D-01 0.744D-01 0.542D-04 0.171D-03 0.668D-04
 Coeff-En:   0.292D-04 0.143D-03
 Coeff:      0.000D+00 0.000D+00 0.000D+00 0.000D+00 0.135D-03 0.000D+00
 Coeff:      0.000D+00 0.283D-02 0.404D+00 0.000D+00 0.122D-02 0.454D+00
 Coeff:      0.000D+00 0.623D-01 0.744D-01 0.542D-04 0.171D-03 0.668D-04
 Coeff:      0.292D-04 0.143D-03
 Gap=     0.003 Goal=   None    Shift=    0.000
 RMSDP=3.22D-07 MaxDP=5.63D-06 DE= 3.37D-05 OVMax= 3.72D-05

 Cycle  54  Pass 1  IDiag  1:
 E= -158.413587771643     Delta-E=        0.000032243770 Rises=F Damp=F
 DIIS: error= 5.09D-02 at cycle  50 NSaved=  20.
 NSaved=20 IEnMin=12 EnMin= -158.632935897791     IErMin= 2 ErrMin= 2.31D-02
 ErrMax= 5.09D-02  0.00D+00 EMaxC= 1.00D-01 BMatC= 1.74D-01 BMatP= 5.27D-02
 IDIUse=2 WtCom= 0.00D+00 WtEn= 1.00D+00
 EnCoef did   100 forward-backward iterations
 Coeff-En:   0.000D+00 0.000D+00 0.000D+00 0.000D+00 0.133D-03 0.000D+00
 Coeff-En:   0.000D+00 0.277D-02 0.405D+00 0.000D+00 0.120D-02 0.454D+00
 Coeff-En:   0.000D+00 0.623D-01 0.744D-01 0.531D-04 0.167D-03 0.654D-04
 Coeff-En:   0.140D-03 0.286D-04
 Coeff:      0.000D+00 0.000D+00 0.000D+00 0.000D+00 0.133D-03 0.000D+00
 Coeff:      0.000D+00 0.277D-02 0.405D+00 0.000D+00 0.120D-02 0.454D+00
 Coeff:      0.000D+00 0.623D-01 0.744D-01 0.531D-04 0.167D-03 0.654D-04
 Coeff:      0.140D-03 0.286D-04
 Gap=     0.003 Goal=   None    Shift=    0.000
 RMSDP=8.54D-06 MaxDP=1.95D-04 DE= 3.22D-05 OVMax= 8.94D-04

 Cycle  55  Pass 1  IDiag  1:
 E= -158.414379127889     Delta-E=       -0.000791356246 Rises=F Damp=F
 DIIS: error= 5.09D-02 at cycle  51 NSaved=  20.
 NSaved=20 IEnMin=12 EnMin= -158.632935897791     IErMin= 2 ErrMin= 2.31D-02
 ErrMax= 5.09D-02  0.00D+00 EMaxC= 1.00D-01 BMatC= 1.74D-01 BMatP= 5.27D-02
 IDIUse=2 WtCom= 0.00D+00 WtEn= 1.00D+00
 EnCoef did   100 forward-backward iterations
 Coeff-En:   0.000D+00 0.000D+00 0.000D+00 0.000D+00 0.130D-03 0.000D+00
 Coeff-En:   0.000D+00 0.271D-02 0.405D+00 0.000D+00 0.117D-02 0.454D+00
 Coeff-En:   0.000D+00 0.622D-01 0.744D-01 0.521D-04 0.164D-03 0.641D-04
 Coeff-En:   0.281D-04 0.138D-03
 Coeff:      0.000D+00 0.000D+00 0.000D+00 0.000D+00 0.130D-03 0.000D+00
 Coeff:      0.000D+00 0.271D-02 0.405D+00 0.000D+00 0.117D-02 0.454D+00
 Coeff:      0.000D+00 0.622D-01 0.744D-01 0.521D-04 0.164D-03 0.641D-04
 Coeff:      0.281D-04 0.138D-03
 Gap=     0.003 Goal=   None    Shift=    0.000
 RMSDP=1.65D-05 MaxDP=3.69D-04 DE=-7.91D-04 OVMax= 1.51D-03

 Cycle  56  Pass 1  IDiag  1:
 E= -158.412656160279     Delta-E=        0.001722967609 Rises=F Damp=F
 DIIS: error= 5.09D-02 at cycle  52 NSaved=  20.
 NSaved=20 IEnMin=12 EnMin= -158.632935897791     IErMin= 2 ErrMin= 2.31D-02
 ErrMax= 5.09D-02  0.00D+00 EMaxC= 1.00D-01 BMatC= 1.74D-01 BMatP= 5.27D-02
 IDIUse=2 WtCom= 0.00D+00 WtEn= 1.00D+00
 EnCoef did   100 forward-backward iterations
 Coeff-En:   0.000D+00 0.000D+00 0.000D+00 0.000D+00 0.127D-03 0.000D+00
 Coeff-En:   0.000D+00 0.266D-02 0.405D+00 0.000D+00 0.115D-02 0.454D+00
 Coeff-En:   0.000D+00 0.622D-01 0.743D-01 0.510D-04 0.161D-03 0.628D-04
 Coeff-En:   0.135D-03 0.275D-04
 Coeff:      0.000D+00 0.000D+00 0.000D+00 0.000D+00 0.127D-03 0.000D+00
 Coeff:      0.000D+00 0.266D-02 0.405D+00 0.000D+00 0.115D-02 0.454D+00
 Coeff:      0.000D+00 0.622D-01 0.743D-01 0.510D-04 0.161D-03 0.628D-04
 Coeff:      0.135D-03 0.275D-04
 Gap=     0.003 Goal=   None    Shift=    0.000
 RMSDP=1.59D-05 MaxDP=3.59D-04 DE= 1.72D-03 OVMax= 1.49D-03

 Cycle  57  Pass 1  IDiag  1:
 E= -158.414294546936     Delta-E=       -0.001638386657 Rises=F Damp=F
 DIIS: error= 5.09D-02 at cycle  53 NSaved=  20.
 NSaved=20 IEnMin=12 EnMin= -158.632935897791     IErMin= 2 ErrMin= 2.31D-02
 ErrMax= 5.09D-02  0.00D+00 EMaxC= 1.00D-01 BMatC= 1.74D-01 BMatP= 5.27D-02
 IDIUse=2 WtCom= 0.00D+00 WtEn= 1.00D+00
 EnCoef did   100 forward-backward iterations
 Coeff-En:   0.000D+00 0.000D+00 0.000D+00 0.000D+00 0.125D-03 0.000D+00
 Coeff-En:   0.000D+00 0.261D-02 0.405D+00 0.000D+00 0.113D-02 0.455D+00
 Coeff-En:   0.000D+00 0.622D-01 0.743D-01 0.501D-04 0.158D-03 0.616D-04
 Coeff-En:   0.270D-04 0.132D-03
 Coeff:      0.000D+00 0.000D+00 0.000D+00 0.000D+00 0.125D-03 0.000D+00
 Coeff:      0.000D+00 0.261D-02 0.405D+00 0.000D+00 0.113D-02 0.455D+00
 Coeff:      0.000D+00 0.622D-01 0.743D-01 0.501D-04 0.158D-03 0.616D-04
 Coeff:      0.270D-04 0.132D-03
 Gap=     0.003 Goal=   None    Shift=    0.000
 RMSDP=1.57D-06 MaxDP=2.98D-05 DE=-1.64D-03 OVMax= 1.88D-04

 Cycle  58  Pass 1  IDiag  1:
 E= -158.414223020892     Delta-E=        0.000071526044 Rises=F Damp=F
 DIIS: error= 5.09D-02 at cycle  54 NSaved=  20.
 NSaved=20 IEnMin=12 EnMin= -158.632935897791     IErMin= 2 ErrMin= 2.31D-02
 ErrMax= 5.09D-02  0.00D+00 EMaxC= 1.00D-01 BMatC= 1.74D-01 BMatP= 5.27D-02
 IDIUse=2 WtCom= 0.00D+00 WtEn= 1.00D+00
 EnCoef did   100 forward-backward iterations
 Coeff-En:   0.000D+00 0.000D+00 0.000D+00 0.000D+00 0.123D-03 0.000D+00
 Coeff-En:   0.000D+00 0.256D-02 0.405D+00 0.000D+00 0.111D-02 0.455D+00
 Coeff-En:   0.000D+00 0.621D-01 0.743D-01 0.491D-04 0.155D-03 0.605D-04
 Coeff-En:   0.130D-03 0.265D-04
 Coeff:      0.000D+00 0.000D+00 0.000D+00 0.000D+00 0.123D-03 0.000D+00
 Coeff:      0.000D+00 0.256D-02 0.405D+00 0.000D+00 0.111D-02 0.455D+00
 Coeff:      0.000D+00 0.621D-01 0.743D-01 0.491D-04 0.155D-03 0.605D-04
 Coeff:      0.130D-03 0.265D-04
 Gap=     0.003 Goal=   None    Shift=    0.000
 RMSDP=4.29D-06 MaxDP=6.69D-05 DE= 7.15D-05 OVMax= 5.32D-04

 Cycle  59  Pass 1  IDiag  1:
 E= -158.413742845575     Delta-E=        0.000480175317 Rises=F Damp=F
 DIIS: error= 5.09D-02 at cycle  55 NSaved=  20.
 NSaved=20 IEnMin=12 EnMin= -158.632935897791     IErMin= 2 ErrMin= 2.31D-02
 ErrMax= 5.09D-02  0.00D+00 EMaxC= 1.00D-01 BMatC= 1.74D-01 BMatP= 5.27D-02
 IDIUse=2 WtCom= 0.00D+00 WtEn= 1.00D+00
 EnCoef did   100 forward-backward iterations
 Coeff-En:   0.000D+00 0.000D+00 0.000D+00 0.000D+00 0.120D-03 0.000D+00
 Coeff-En:   0.000D+00 0.251D-02 0.405D+00 0.000D+00 0.109D-02 0.455D+00
 Coeff-En:   0.000D+00 0.621D-01 0.743D-01 0.482D-04 0.152D-03 0.594D-04
 Coeff-En:   0.260D-04 0.128D-03
 Coeff:      0.000D+00 0.000D+00 0.000D+00 0.000D+00 0.120D-03 0.000D+00
 Coeff:      0.000D+00 0.251D-02 0.405D+00 0.000D+00 0.109D-02 0.455D+00
 Coeff:      0.000D+00 0.621D-01 0.743D-01 0.482D-04 0.152D-03 0.594D-04
 Coeff:      0.260D-04 0.128D-03
 Gap=     0.003 Goal=   None    Shift=    0.000
 RMSDP=1.18D-05 MaxDP=2.66D-04 DE= 4.80D-04 OVMax= 1.27D-03

 Cycle  60  Pass 1  IDiag  1:
 E= -158.412702468896     Delta-E=        0.001040376679 Rises=F Damp=F
 DIIS: error= 5.09D-02 at cycle  56 NSaved=  20.
 NSaved=20 IEnMin=12 EnMin= -158.632935897791     IErMin= 2 ErrMin= 2.31D-02
 ErrMax= 5.09D-02  0.00D+00 EMaxC= 1.00D-01 BMatC= 1.74D-01 BMatP= 5.27D-02
 IDIUse=2 WtCom= 0.00D+00 WtEn= 1.00D+00
 EnCoef did   100 forward-backward iterations
 Coeff-En:   0.000D+00 0.000D+00 0.000D+00 0.000D+00 0.118D-03 0.000D+00
 Coeff-En:   0.000D+00 0.247D-02 0.405D+00 0.000D+00 0.107D-02 0.455D+00
 Coeff-En:   0.000D+00 0.620D-01 0.743D-01 0.474D-04 0.149D-03 0.583D-04
 Coeff-En:   0.125D-03 0.255D-04
 Coeff:      0.000D+00 0.000D+00 0.000D+00 0.000D+00 0.118D-03 0.000D+00
 Coeff:      0.000D+00 0.247D-02 0.405D+00 0.000D+00 0.107D-02 0.455D+00
 Coeff:      0.000D+00 0.620D-01 0.743D-01 0.474D-04 0.149D-03 0.583D-04
 Coeff:      0.125D-03 0.255D-04
 Gap=     0.003 Goal=   None    Shift=    0.000
 RMSDP=1.65D-07 MaxDP=2.61D-06 DE= 1.04D-03 OVMax= 1.76D-05

 Cycle  61  Pass 1  IDiag  1:
 E= -158.412691912989     Delta-E=        0.000010555908 Rises=F Damp=F
 DIIS: error= 5.09D-02 at cycle  57 NSaved=  20.
 NSaved=20 IEnMin=12 EnMin= -158.632935897791     IErMin= 2 ErrMin= 2.31D-02
 ErrMax= 5.09D-02  0.00D+00 EMaxC= 1.00D-01 BMatC= 1.74D-01 BMatP= 5.27D-02
 IDIUse=2 WtCom= 0.00D+00 WtEn= 1.00D+00
 EnCoef did   100 forward-backward iterations
 Coeff-En:   0.000D+00 0.000D+00 0.000D+00 0.000D+00 0.116D-03 0.000D+00
 Coeff-En:   0.000D+00 0.242D-02 0.405D+00 0.000D+00 0.105D-02 0.455D+00
 Coeff-En:   0.000D+00 0.620D-01 0.743D-01 0.465D-04 0.147D-03 0.573D-04
 Coeff-En:   0.251D-04 0.123D-03
 Coeff:      0.000D+00 0.000D+00 0.000D+00 0.000D+00 0.116D-03 0.000D+00
 Coeff:      0.000D+00 0.242D-02 0.405D+00 0.000D+00 0.105D-02 0.455D+00
 Coeff:      0.000D+00 0.620D-01 0.743D-01 0.465D-04 0.147D-03 0.573D-04
 Coeff:      0.251D-04 0.123D-03
 Gap=     0.003 Goal=   None    Shift=    0.000
 RMSDP=1.62D-07 MaxDP=2.53D-06 DE= 1.06D-05 OVMax= 1.74D-05

 Cycle  62  Pass 1  IDiag  1:
 E= -158.412681248040     Delta-E=        0.000010664949 Rises=F Damp=F
 DIIS: error= 5.09D-02 at cycle  58 NSaved=  20.
 NSaved=20 IEnMin=12 EnMin= -158.632935897791     IErMin= 2 ErrMin= 2.31D-02
 ErrMax= 5.09D-02  0.00D+00 EMaxC= 1.00D-01 BMatC= 1.74D-01 BMatP= 5.27D-02
 IDIUse=2 WtCom= 0.00D+00 WtEn= 1.00D+00
 EnCoef did   100 forward-backward iterations
 Coeff-En:   0.000D+00 0.000D+00 0.000D+00 0.000D+00 0.114D-03 0.000D+00
 Coeff-En:   0.000D+00 0.238D-02 0.405D+00 0.000D+00 0.103D-02 0.455D+00
 Coeff-En:   0.000D+00 0.620D-01 0.743D-01 0.457D-04 0.144D-03 0.563D-04
 Coeff-En:   0.121D-03 0.247D-04
 Coeff:      0.000D+00 0.000D+00 0.000D+00 0.000D+00 0.114D-03 0.000D+00
 Coeff:      0.000D+00 0.238D-02 0.405D+00 0.000D+00 0.103D-02 0.455D+00
 Coeff:      0.000D+00 0.620D-01 0.743D-01 0.457D-04 0.144D-03 0.563D-04
 Coeff:      0.121D-03 0.247D-04
 Gap=     0.003 Goal=   None    Shift=    0.000
 RMSDP=1.56D-07 MaxDP=2.44D-06 DE= 1.07D-05 OVMax= 1.67D-05

 Cycle  63  Pass 1  IDiag  1:
 E= -158.412671131166     Delta-E=        0.000010116874 Rises=F Damp=F
 DIIS: error= 5.09D-02 at cycle  59 NSaved=  20.
[...]
  91        4PX        -0.66888   0.19961   0.23240  -0.02297   0.69652
  92        4PY         0.14297   0.57599  -0.39933  -0.32220  -0.29301
  93        4PZ         0.18946  -0.33368   0.04897   0.14381  -0.15082
  94        5PX        -0.54974   0.15992   0.18403  -0.01973   0.59988
  95        5PY         0.11338   0.46762  -0.33308  -0.27739  -0.25214
  96        5PZ         0.14621  -0.28073   0.02466   0.12371  -0.12920
  97        6D 0        0.22462  -0.45092   0.13990   0.21451  -0.14793
  98        6D+1       -0.14639   0.20809  -0.02326  -0.08733   0.13160
  99        6D-1       -0.09754   0.47623  -0.19289  -0.23782   0.00342
 100        6D+2       -0.72578  -0.01208   0.38862   0.09938   0.81796
 101        6D-2       -0.08682  -0.33955   0.23401   0.18771   0.17699
 102 14  H  1S         -0.42661  -0.49433   0.54088   0.32775   0.61575
 103        2S         -0.22640  -0.26320   0.30506   0.18309   0.34384
 104        3PX        -0.12706  -0.14537   0.17022   0.10068   0.17908
 105        3PY         0.38350   0.44468  -0.49910  -0.29374  -0.55672
 106        3PZ         0.06230   0.06993  -0.06888  -0.04520  -0.07971
 107 15  H  1S         -0.32284   0.76432  -0.19328  -0.35336   0.21492
 108        2S         -0.17000   0.42155  -0.09444  -0.19740   0.11988
 109        3PX        -0.09872   0.24201  -0.05322  -0.11132   0.05826
 110        3PY        -0.16719   0.41392  -0.09450  -0.18631   0.12002
 111        3PZ         0.23983  -0.56914   0.14150   0.25986  -0.15780
 112 16  H  1S          0.79170  -0.21566  -0.25151   0.02442  -0.82583
 113        2S          0.43611  -0.11160  -0.12612   0.01358  -0.46142
 114        3PX        -0.76988   0.20366   0.23441  -0.02326   0.79071
 115        3PY        -0.00026   0.00294   0.00302   0.00464   0.00409
 116        3PZ        -0.01266   0.00762   0.01217  -0.00242   0.01425
                         116
                           V
     Eigenvalues --     2.35001
   1 1   C  1S         -0.00001
   2        2S          0.00013
   3        3S          0.00029
   4        4PX        -0.00130
   5        4PY        -0.17905
   6        4PZ        -0.16712
   7        5PX        -0.00113
   8        5PY        -0.15401
   9        5PZ        -0.14378
  10        6D 0        0.17271
  11        6D+1        0.11630
  12        6D-1        0.07698
  13        6D+2        0.10133
  14        6D-2        0.12255
  15 2   H  1S         -0.24904
  16        2S         -0.13912
  17        3PX        -0.08538
  18        3PY        -0.08445
  19        3PZ        -0.20618
  20 3   H  1S          0.02746
  21        2S          0.01531
  22        3PX         0.00950
  23        3PY         0.01744
  24        3PZ        -0.01751
  25 4   H  1S          0.22130
  26        2S          0.12358
  27        3PX         0.07395
  28        3PY        -0.19732
  29        3PZ        -0.02302
  30 5   C  1S          0.00001
  31        2S         -0.00006
  32        3S         -0.00013
  33        4PX         0.02771
  34        4PY         0.61565
  35        4PZ         0.47828
  36        5PX         0.02390
  37        5PY         0.53003
  38        5PZ         0.41181
  39        6D 0       -0.62719
  40        6D+1       -0.28402
  41        6D-1       -0.20139
  42        6D+2       -0.33898
  43        6D-2       -0.35544
  44 6   H  1S          0.76589
  45        2S          0.42798
  46        3PX         0.24109
  47        3PY         0.24951
  48        3PZ         0.64638
  49 7   H  1S         -0.02669
  50        2S         -0.01494
  51        3PX         0.02549
  52        3PY        -0.00879
  53        3PZ        -0.00721
  54 8   H  1S         -0.73906
  55        2S         -0.41293
  56        3PX        -0.22566
  57        3PY         0.66763
  58        3PZ         0.06652
  59 9   C  1S          0.00008
  60        2S         -0.00180
  61        3S         -0.00261
  62        4PX         0.18838
  63        4PY         0.14678
  64        4PZ        -0.63079
  65        5PX         0.16232
  66        5PY         0.12614
  67        5PZ        -0.54333
  68        6D 0       -0.01539
  69        6D+1        0.37425
  70        6D-1        0.60178
  71        6D+2        0.22830
  72        6D-2       -0.10372
  73 10  H  1S         -0.51087
  74        2S         -0.28548
  75        3PX        -0.16264
  76        3PY        -0.18994
  77        3PZ        -0.42012
  78 11  H  1S         -0.21953
  79        2S         -0.12268
  80        3PX         0.20994
  81        3PY        -0.00702
  82        3PZ         0.00902
  83 12  H  1S          0.73383
  84        2S          0.41008
  85        3PX         0.23075
  86        3PY         0.41378
  87        3PZ        -0.51958
  88 13  C  1S         -0.00008
  89        2S          0.00180
  90        3S          0.00259
  91        4PX        -0.21497
  92        4PY        -0.57732
  93        4PZ         0.32586
  94        5PX        -0.18515
  95        5PY        -0.49736
  96        5PZ         0.28034
  97        6D 0        0.46755
  98        6D+1       -0.20760
  99        6D-1       -0.47940
 100        6D+2        0.00181
 101        6D-2        0.33476
 102 14  H  1S          0.51041
 103        2S          0.28529
 104        3PX         0.15940
 105        3PY        -0.45616
 106        3PZ        -0.07173
 107 15  H  1S         -0.76312
 108        2S         -0.42641
 109        3PX        -0.23823
 110        3PY        -0.40385
 111        3PZ         0.56109
 112 16  H  1S          0.24929
 113        2S          0.13923
 114        3PX        -0.23843
 115        3PY         0.00835
 116        3PZ        -0.00831
          Condensed to atoms (all electrons):
               1          2          3          4          5          6
     1  C    5.000489   0.391670   0.393335   0.391670   0.002766  -0.000086
     2  H    0.391670   0.613349  -0.032666  -0.032217  -0.000086   0.000010
     3  H    0.393335  -0.032666   0.611648  -0.032666  -0.000011   0.000000
     4  H    0.391670  -0.032217  -0.032666   0.613350  -0.000086   0.000003
     5  C    0.002766  -0.000086  -0.000011  -0.000086   5.000675   0.391671
     6  H   -0.000086   0.000010   0.000000   0.000003   0.391671   0.613352
     7  H   -0.000011   0.000000   0.000000   0.000000   0.393275  -0.032692
     8  H   -0.000086   0.000003   0.000000   0.000010   0.391667  -0.032200
     9  C    0.000086   0.000033   0.000022   0.000004   0.000098   0.000033
    10  H    0.000022  -0.000001  -0.000001  -0.000000   0.000022  -0.000001
    11  H    0.000004  -0.000000  -0.000000  -0.000000   0.000033  -0.000002
    12  H    0.000033  -0.000002  -0.000001  -0.000000   0.000004  -0.000000
    13  C    0.000087   0.000004   0.000022   0.000033   0.000099   0.000004
    14  H    0.000022  -0.000000  -0.000001  -0.000001   0.000022  -0.000000
    15  H    0.000033  -0.000000  -0.000001  -0.000002   0.000004  -0.000000
    16  H    0.000004  -0.000000  -0.000000  -0.000000   0.000033  -0.000000
               7          8          9         10         11         12
     1  C   -0.000011  -0.000086   0.000086   0.000022   0.000004   0.000033
     2  H    0.000000   0.000003   0.000033  -0.000001  -0.000000  -0.000002
     3  H    0.000000   0.000000   0.000022  -0.000001  -0.000000  -0.000001
     4  H    0.000000   0.000010   0.000004  -0.000000  -0.000000  -0.000000
     5  C    0.393275   0.391667   0.000098   0.000022   0.000033   0.000004
     6  H   -0.032692  -0.032200   0.000033  -0.000001  -0.000002  -0.000000
     7  H    0.611811  -0.032694   0.000022  -0.000001  -0.000001  -0.000000
     8  H   -0.032694   0.613364   0.000004  -0.000000  -0.000000  -0.000000
     9  C    0.000022   0.000004   5.000609   0.393347   0.391616   0.391670
    10  H   -0.000001  -0.000000   0.393347   0.611617  -0.032691  -0.032648
    11  H   -0.000001  -0.000000   0.391616  -0.032691   0.613465  -0.032237
    12  H   -0.000000  -0.000000   0.391670  -0.032648  -0.032237   0.613323
    13  C    0.000022   0.000033   0.002787  -0.000011  -0.000088  -0.000087
    14  H   -0.000001  -0.000001  -0.000011   0.000000   0.000000   0.000000
    15  H   -0.000000  -0.000000  -0.000087   0.000000   0.000003   0.000010
    16  H   -0.000001  -0.000002  -0.000088   0.000000   0.000010   0.000003
              13         14         15         16
     1  C    0.000087   0.000022   0.000033   0.000004
     2  H    0.000004  -0.000000  -0.000000  -0.000000
     3  H    0.000022  -0.000001  -0.000001  -0.000000
     4  H    0.000033  -0.000001  -0.000002  -0.000000
     5  C    0.000099   0.000022   0.000004   0.000033
     6  H    0.000004  -0.000000  -0.000000  -0.000000
     7  H    0.000022  -0.000001  -0.000000  -0.000001
     8  H    0.000033  -0.000001  -0.000000  -0.000002
     9  C    0.002787  -0.000011  -0.000087  -0.000088
    10  H   -0.000011   0.000000   0.000000   0.000000
    11  H   -0.000088   0.000000   0.000003   0.000010
    12  H   -0.000087   0.000000   0.000010   0.000003
    13  C    5.000606   0.393347   0.391667   0.391620
    14  H    0.393347   0.611621  -0.032648  -0.032691
    15  H    0.391667  -0.032648   0.613348  -0.032243
    16  H    0.391620  -0.032691  -0.032243   0.613482
 Mulliken charges:
               1
     1  C   -0.180036
     2  H    0.059904
     3  H    0.060320
     4  H    0.059904
     5  C   -0.180184
     6  H    0.059908
     7  H    0.060271
     8  H    0.059903
     9  C   -0.180145
    10  H    0.060346
    11  H    0.059889
    12  H    0.059932
    13  C   -0.180143
    14  H    0.060342
    15  H    0.059916
    16  H    0.059872
 Sum of Mulliken charges =   0.00000
 Mulliken charges with hydrogens summed into heavy atoms:
               1
     1  C    0.000092
     5  C   -0.000101
     9  C    0.000022
    13  C   -0.000012
 Electronic spatial extent (au):  <R**2>=           2693.9672
 Charge=              0.0000 electrons
 Dipole moment (field-independent basis, Debye):
    X=              0.0057    Y=             -0.0008    Z=              0.0008  Tot=              0.0058
 Quadrupole moment (field-independent basis, Debye-Ang):
   XX=            -25.2434   YY=            -25.2132   ZZ=            -25.2440
   XY=              0.0471   XZ=             -0.0623   YZ=              0.0551
 Traceless Quadrupole moment (field-independent basis, Debye-Ang):
   XX=             -0.0099   YY=              0.0203   ZZ=             -0.0104
   XY=              0.0471   XZ=             -0.0623   YZ=              0.0551
 Octapole moment (field-independent basis, Debye-Ang**2):
  XXX=            225.4791  YYY=             -6.4572  ZZZ=              2.4681  XYY=             83.6322
  XXY=             -0.0125  XXZ=              0.2952  XZZ=             83.8227  YZZ=              6.7782
  YYZ=             -2.7284  XYZ=             -0.1935
 Hexadecapole moment (field-independent basis, Debye-Ang**3):
 XXXX=          -1953.3558 YYYY=           -619.6432 ZZZZ=           -620.3640 XXXY=             -1.1975
 XXXZ=             -1.2433 YYYX=              8.9042 YYYZ=              0.4239 ZZZX=             -3.2271
 ZZZY=              0.2430 XXYY=           -492.3343 XXZZ=           -492.8690 YYZZ=           -206.9037
 XXYZ=              0.5417 YYXZ=              3.8773 ZZXY=             -9.5275
 N-N= 8.639378714950D+01 E-N=-5.395963234426D+02  KE= 1.574644581981D+02
 Orbital energies and kinetic energies (alpha):
                                 1                 2
   1         O                -9.914711         15.953625
   2         O                -9.914700         15.953624
   3         O                -9.914674         15.953624
   4         O                -9.914672         15.953617
   5         O                -0.600402          1.263534
   6         O                -0.600229          1.265651
   7         O                -0.600221          1.265614
   8         O                -0.600205          1.265598
   9         O                -0.341340          0.951083
  10         O                -0.341269          0.951132
  11         O                -0.341200          0.951965
  12         O                -0.341132          0.950888
  13         O                -0.341101          0.952019
  14         O                -0.340871          0.955718
  15         O                -0.340748          0.955577
  16         O                -0.340704          0.955696
  17         O                -0.180984          1.091218
  18         O                -0.176043          1.142045
  19         V                -0.176050          1.142106
  20         V                -0.176031          1.142033
  21         V                 0.051878          0.714883
  22         V                 0.066321          0.762212
  23         V                 0.066371          0.762480
  24         V                 0.066382          0.762445
  25         V                 0.117915          0.771681
  26         V                 0.118027          0.771616
  27         V                 0.118064          0.771557
  28         V                 0.122490          0.788088
  29         V                 0.122522          0.791829
  30         V                 0.122536          0.791862
  31         V                 0.122573          0.788383
  32         V                 0.122609          0.791280
  33         V                 0.386570          1.119167
  34         V                 0.386775          1.119564
  35         V                 0.386802          1.119619
  36         V                 0.388126          1.094719
  37         V                 0.388154          1.094892
  38         V                 0.406401          1.124286
  39         V                 0.406406          1.124329
  40         V                 0.406581          1.124532
  41         V                 0.430251          1.877186
  42         V                 0.481890          1.869221
  43         V                 0.481995          1.868947
  44         V                 0.482002          1.868984
  45         V                 0.549652          1.795676
  46         V                 0.554597          1.804706
  47         V                 0.554676          1.804870
  48         V                 0.554702          1.804921
  49         V                 0.600507          2.023431
  50         V                 0.600693          2.023687
  51         V                 0.600713          2.023695
  52         V                 0.601243          2.011641
  53         V                 0.601314          2.011560
  54         V                 0.610639          2.029520
  55         V                 0.610656          2.029518
  56         V                 0.610776          2.029779
  57         V                 0.841030          1.898305
  58         V                 0.842583          1.906485
  59         V                 0.842603          1.906450
  60         V                 0.842622          1.906445
  61         V                 0.884344          1.667697
  62         V                 0.884359          1.667709
  63         V                 0.884524          1.667551
  64         V                 0.884531          1.667539
  65         V                 0.884627          1.667471
  66         V                 0.884829          1.666805
  67         V                 0.884992          1.666989
  68         V                 0.884994          1.666993
  69         V                 1.241704          2.113627
  70         V                 1.247771          2.111003
  71         V                 1.247780          2.111007
  72         V                 1.247884          2.111134
  73         V                 1.352342          2.029077
  74         V                 1.352352          2.029102
  75         V                 1.352378          2.029112
  76         V                 1.352400          2.029114
  77         V                 1.474092          2.192785
  78         V                 1.474157          2.192773
  79         V                 1.477147          2.192891
  80         V                 1.477193          2.192888
  81         V                 1.477321          2.192906
  82         V                 1.486904          2.190816
  83         V                 1.487020          2.190898
  84         V                 1.487048          2.190889
  85         V                 1.612555          2.528747
  86         V                 1.612935          2.529032
  87         V                 1.612971          2.529043
  88         V                 1.613809          2.527872
  89         V                 1.613880          2.527871
  90         V                 1.617569          2.543610
  91         V                 1.617599          2.543602
  92         V                 1.617826          2.543825
  93         V                 1.829851          2.618028
  94         V                 1.848740          2.618603
  95         V                 1.848875          2.618671
  96         V                 1.848930          2.618738
  97         V                 2.031993          2.812651
  98         V                 2.032044          2.812651
  99         V                 2.033198          2.811799
 100         V                 2.033382          2.811941
 101         V                 2.033410          2.811941
 102         V                 2.035933          2.810558
 103         V                 2.035970          2.810549
 104         V                 2.036006          2.810532
 105         V                 2.283687          3.957671
 106         V                 2.288172          3.960866
 107         V                 2.288191          3.960919
 108         V                 2.288366          3.961031
 109         V                 2.337302          4.188196
 110         V                 2.337386          4.188235
 111         V                 2.339870          4.190889
 112         V                 2.340031          4.192128
 113         V                 2.340070          4.192205
 114         V                 2.349889          4.199101
 115         V                 2.349918          4.199229
 116         V                 2.350014          4.200031
 Total kinetic energy from orbitals= 1.574644581981D+02
 No NMR shielding tensors so no spin-rotation constants.
 Leave Link  601 at Thu Jul  2 20:28:10 2020, MaxMem= 16642998272 cpu:        10.6
 (Enter /home/fuchs/agschreiner/public/bin/gaussian09-E.01/g09/l9999.exe)

 Test job not archived.
 1\1\GINC-NODE31-009\SP\RPBEPBE\CC-pVDZ\C4H12\SCHWAN\02-Jul-2020\0\\#p 
 cc-pVDZ pbepbe empiricaldispersion=gd3bj scf=(xqc,maxcycle=250) int=(g
 rid=ultrafine,acc2E=11) iop(6/7=3) gfinput nosymm\\opt\\0,1\C,0,-6.212
 91801,0.01863278,0.00047789\H,0,-6.61477344,-0.37904,-0.95465486\H,0,-
 6.61788884,-0.60487921,0.8245939\H,0,-6.60480743,1.04887824,0.13058308
 \C,0,-2.06827277,1.7521325,-2.31845017\H,0,-2.42422267,1.37406611,-3.2
 994212\H,0,-0.95837108,1.76017845,-2.34120982\H,0,-2.4122808,2.8021915
 7,-2.21383233\C,0,-2.10431724,-2.90586848,-0.36368259\H,0,-2.45820116,
 -3.3364549,-1.32351101\H,0,-0.99469643,-2.94187441,-0.36506473\H,0,-2.
 46338715,-3.56225905,0.45615683\C,0,-2.07675195,1.11577547,2.6929929\H
 ,0,-2.4227445,2.15814761,2.8532452\H,0,-2.43353154,0.50413335,3.547696
 95\H,0,-0.96691944,1.11959843,2.71929864\\Version=ES64L-G09RevE.01\HF=
 -158.9347819\RMSD=4.596e-07\Dipole=0.0022403,-0.000323,0.0003221\Quadr
 upole=-0.0073281,0.0150972,-0.0077691,0.0350081,-0.0463032,0.0409795\P
 G=C01 [X(C4H12)]\\@


 KEEP CLOSE TO NATURES HEART, YOURSELF;
 AND BREAK CLEAR AWAY, ONCE IN A WHILE, AND
 CLIMB A MOUNTAIN OR SPEND A WEEK IN THE
 WOODS.  WASH YOUR SPIRIT CLEAN...
                                         -- JOHN MUIR
 Job cpu time:       0 days  0 hours 48 minutes 55.1 seconds.
 File lengths (MBytes):  RWF=     66 Int=      0 D2E=      0 Chk=      2 Scr=      1
 Normal termination of Gaussian 09 at Thu Jul  2 20:28:12 2020.
