 Entering Gaussian System, Link 0=/home/fuchs/agschreiner/public/bin/gaussian16-C.01/g16/g16
 Input=cluster.com
 Output=cluster.log
 Initial command:
 /home/fuchs/agschreiner/public/bin/gaussian09-E.01/g09/l1.exe "/scratch/fuchs/giessen/schwan/promotion/dimer_paper/bondshare/AdMe/substituent2/Gau-53830.inp" -scrdir="/scratch/fuchs/giessen/schwan/promotion/dimer_paper/bondshare/AdMe/substituent2/"
 Entering Link 1 = /home/fuchs/agschreiner/public/bin/gaussian09-E.01/g09/l1.exe PID=     53831.
  
 Copyright (c) 1988,1990,1992,1993,1995,1998,2003,2009,2015,
            Gaussian, Inc.  All Rights Reserved.
  
 This is part of the Gaussian(R) 09 program.  It is based on
 the Gaussian(R) 03 system (copyright 2003, Gaussian, Inc.),
 the Gaussian(R) 98 system (copyright 1998, Gaussian, Inc.),
 the Gaussian(R) 94 system (copyright 1995, Gaussian, Inc.),
 the Gaussian 92(TM) system (copyright 1992, Gaussian, Inc.),
 the Gaussian 90(TM) system (copyright 1990, Gaussian, Inc.),
 the Gaussian 88(TM) system (copyright 1988, Gaussian, Inc.),
 the Gaussian 86(TM) system (copyright 1986, Carnegie Mellon
 University), and the Gaussian 82(TM) system (copyright 1983,
 Carnegie Mellon University). Gaussian is a federally registered
 trademark of Gaussian, Inc.
  
 This software contains proprietary and confidential information,
 including trade secrets, belonging to Gaussian, Inc.
  
 This software is provided under written license and may be
 used, copied, transmitted, or stored only in accord with that
 written license.
  
 The following legend is applicable only to US Government
 contracts under FAR:
  
                    RESTRICTED RIGHTS LEGEND
  
 Use, reproduction and disclosure by the US Government is
 subject to restrictions as set forth in subparagraphs (a)
 and (c) of the Commercial Computer Software - Restricted
 Rights clause in FAR 52.227-19.
  
 Gaussian, Inc.
 340 Quinnipiac St., Bldg. 40, Wallingford CT 06492
  
  
 ---------------------------------------------------------------
 Warning -- This program may not be used in any manner that
 competes with the business of Gaussian, Inc. or will provide
 assistance to any competitor of Gaussian, Inc.  The licensee
 of this program is prohibited from giving any competitor of
 Gaussian, Inc. access to this program.  By using this program,
 the user acknowledges that Gaussian, Inc. is engaged in the
 business of creating and licensing software in the field of
 computational chemistry and represents and warrants to the
 licensee that it is not a competitor of Gaussian, Inc. and that
 it will not use this program in any manner prohibited above.
 ---------------------------------------------------------------
  

 Cite this work as:
 Gaussian 09, Revision E.01,
 M. J. Frisch, G. W. Trucks, H. B. Schlegel, G. E. Scuseria, 
 M. A. Robb, J. R. Cheeseman, G. Scalmani, V. Barone, B. Mennucci, 
 G. A. Petersson, H. Nakatsuji, M. Caricato, X. Li, H. P. Hratchian, 
 A. F. Izmaylov, J. Bloino, G. Zheng, J. L. Sonnenberg, M. Hada, 
 M. Ehara, K. Toyota, R. Fukuda, J. Hasegawa, M. Ishida, T. Nakajima, 
 Y. Honda, O. Kitao, H. Nakai, T. Vreven, J. A. Montgomery, Jr., 
 J. E. Peralta, F. Ogliaro, M. Bearpark, J. J. Heyd, E. Brothers, 
 K. N. Kudin, V. N. Staroverov, T. Keith, R. Kobayashi, J. Normand, 
 K. Raghavachari, A. Rendell, J. C. Burant, S. S. Iyengar, J. Tomasi, 
 M. Cossi, N. Rega, J. M. Millam, M. Klene, J. E. Knox, J. B. Cross, 
 V. Bakken, C. Adamo, J. Jaramillo, R. Gomperts, R. E. Stratmann, 
 O. Yazyev, A. J. Austin, R. Cammi, C. Pomelli, J. W. Ochterski, 
 R. L. Martin, K. Morokuma, V. G. Zakrzewski, G. A. Voth, 
 P. Salvador, J. J. Dannenberg, S. Dapprich, A. D. Daniels, 
 O. Farkas, J. B. Foresman, J. V. Ortiz, J. Cioslowski, 
 and D. J. Fox, Gaussian, Inc., Wallingford CT, 2013.
 
 ******************************************
 Gaussian 09:  ES64L-G09RevE.01 30-Nov-2015
                 4-Jul-2020 
 ******************************************
 %NProcShared=20
 Will use up to   20 processors via shared memory.
 %Mem=124GB
 %Chk=ziel1
 ----------------------------------------------------------------------
 #p cc-pVDZ pbepbe empiricaldispersion=gd3bj scf=(xqc,maxcycle=250) int
 =(grid=ultrafine,acc2E=11) iop(6/7=3) gfinput nosymm
 ----------------------------------------------------------------------
 1/38=1/1;
 2/12=2,15=1,17=6,18=5,40=1/2;
 3/5=16,11=2,16=1,24=10,25=1,30=1,74=1009,75=-5,124=41/1,2,3;
 4//1;
 5/5=2,7=250,8=3,13=1,38=5,87=11/2,8;
 6/7=3,8=2,9=2,10=2,28=1/1;
 99/5=1,9=1/99;
 Leave Link    1 at Sat Jul  4 21:45:36 2020, MaxMem= 16642998272 cpu:        36.3
 (Enter /home/fuchs/agschreiner/public/bin/gaussian09-E.01/g09/l101.exe)
 ---
 opt
 ---
 Symbolic Z-matrix:
 Charge =  0 Multiplicity = 1
 C                     6.21285   0.0016    0.01774 
 H                     6.60568   0.07187   1.05342 
 H                     6.61718   0.86049  -0.55738 
 H                     6.6144   -0.92886  -0.43494 
 C                     2.07004  -2.41483   1.61714 
 H                     2.41436  -2.3714    2.6714 
 H                     0.96015  -2.43868   1.6241 
 H                     2.4264   -3.37191   1.18245 
 C                     2.07741   2.62527   1.27307 
 H                     2.4248    2.72507   2.3225 
 H                     0.96758   2.65095   1.28002 
 H                     2.43316   3.51404   0.71144 
 C                     2.10176  -0.19276  -2.91936 
 H                     0.99212  -0.19186  -2.95431 
 H                     2.45508  -1.1259   -3.40547 
 H                     2.46033   0.66387  -3.52727 
 
 NAtoms=     16 NQM=       16 NQMF=       0 NMMI=      0 NMMIF=      0
                NMic=       0 NMicF=      0.
                    Isotopes and Nuclear Properties:
 (Nuclear quadrupole moments (NQMom) in fm**2, nuclear magnetic moments (NMagM)
  in nuclear magnetons)

  Atom         1           2           3           4           5           6           7           8           9          10
 IAtWgt=          12           1           1           1          12           1           1           1          12           1
 AtmWgt=  12.0000000   1.0078250   1.0078250   1.0078250  12.0000000   1.0078250   1.0078250   1.0078250  12.0000000   1.0078250
 NucSpn=           0           1           1           1           0           1           1           1           0           1
 AtZEff=   0.0000000   0.0000000   0.0000000   0.0000000   0.0000000   0.0000000   0.0000000   0.0000000   0.0000000   0.0000000
 NQMom=    0.0000000   0.0000000   0.0000000   0.0000000   0.0000000   0.0000000   0.0000000   0.0000000   0.0000000   0.0000000
 NMagM=    0.0000000   2.7928460   2.7928460   2.7928460   0.0000000   2.7928460   2.7928460   2.7928460   0.0000000   2.7928460
 AtZNuc=   6.0000000   1.0000000   1.0000000   1.0000000   6.0000000   1.0000000   1.0000000   1.0000000   6.0000000   1.0000000

  Atom        11          12          13          14          15          16
 IAtWgt=           1           1          12           1           1           1
 AtmWgt=   1.0078250   1.0078250  12.0000000   1.0078250   1.0078250   1.0078250
 NucSpn=           1           1           0           1           1           1
 AtZEff=   0.0000000   0.0000000   0.0000000   0.0000000   0.0000000   0.0000000
 NQMom=    0.0000000   0.0000000   0.0000000   0.0000000   0.0000000   0.0000000
 NMagM=    2.7928460   2.7928460   0.0000000   2.7928460   2.7928460   2.7928460
 AtZNuc=   1.0000000   1.0000000   6.0000000   1.0000000   1.0000000   1.0000000
 Leave Link  101 at Sat Jul  4 21:45:37 2020, MaxMem= 16642998272 cpu:         4.1
 (Enter /home/fuchs/agschreiner/public/bin/gaussian09-E.01/g09/l202.exe)
                          Input orientation:                          
 ---------------------------------------------------------------------
 Center     Atomic      Atomic             Coordinates (Angstroms)
 Number     Number       Type             X           Y           Z
 ---------------------------------------------------------------------
      1          6           0        6.212847    0.001597    0.017736
      2          1           0        6.605681    0.071875    1.053424
      3          1           0        6.617179    0.860490   -0.557380
      4          1           0        6.614405   -0.928858   -0.434939
      5          6           0        2.070044   -2.414829    1.617139
      6          1           0        2.414360   -2.371397    2.671397
      7          1           0        0.960154   -2.438682    1.624097
      8          1           0        2.426398   -3.371914    1.182455
      9          6           0        2.077414    2.625270    1.273073
     10          1           0        2.424799    2.725069    2.322504
     11          1           0        0.967583    2.650945    1.280021
     12          1           0        2.433155    3.514044    0.711444
     13          6           0        2.101764   -0.192757   -2.919357
     14          1           0        0.992118   -0.191857   -2.954310
     15          1           0        2.455076   -1.125905   -3.405466
     16          1           0        2.460327    0.663866   -3.527273
 ---------------------------------------------------------------------
                    Distance matrix (angstroms):
                    1          2          3          4          5
     1  C    0.000000
     2  H    1.109913   0.000000
     3  H    1.109927   1.793526   0.000000
     4  H    1.109914   1.793534   1.793534   0.000000
     5  C    5.055692   5.203217   6.011046   5.202917   0.000000
     6  H    5.205912   5.114155   6.207558   5.419467   1.109910
     7  H    6.010503   6.204880   6.902558   6.204011   1.110169
     8  H    5.203301   5.416894   6.205071   5.111153   1.109933
     9  C    5.055822   5.203198   5.203313   6.011107   5.051834
    10  H    5.203706   5.111730   5.417234   6.205438   5.200187
    11  H    6.010425   6.204120   6.204813   6.902367   5.195300
    12  H    5.206206   5.419912   5.114422   6.207770   6.008633
    13  C    5.056213   6.011513   5.203579   5.203662   5.051575
    14  H    6.010532   6.902433   6.204355   6.204878   5.196313
    15  H    5.206766   6.208373   5.420374   5.114966   5.199629
    16  H    5.204526   6.206223   5.112567   5.418086   6.007966
                    6          7          8          9         10
     6  H    0.000000
     7  H    1.793343   0.000000
     8  H    1.793915   1.793277   0.000000
     9  C    5.199569   5.197605   6.008013   0.000000
    10  H    5.108405   5.412697   6.202655   1.109928   0.000000
    11  H    5.408606   5.101250   6.197782   1.110150   1.793249
    12  H    6.203240   6.199808   6.902052   1.109909   1.793896
    13  C    6.008388   5.195231   5.199739   5.051568   6.007925
    14  H    6.198528   5.100103   5.411353   5.194693   6.197241
    15  H    6.203320   5.408760   5.108268   6.008550   6.902214
    16  H    6.902061   6.197817   6.202436   5.199716   6.202395
                   11         12         13         14         15
    11  H    0.000000
    12  H    1.793355   0.000000
    13  C    5.196902   5.199318   0.000000
    14  H    5.100165   5.408146   1.110197   0.000000
    15  H    6.199276   6.203108   1.109908   1.793386   0.000000
    16  H    5.411732   5.107932   1.109925   1.793373   1.793919
                   16
    16  H    0.000000
 Symmetry turned off by external request.
 Stoichiometry    C4H12
 Framework group  C1[X(C4H12)]
 Deg. of freedom    42
 Full point group                 C1      NOp   1
 Rotational constants (GHZ):      1.2229586      1.2214482      1.2213538
 Leave Link  202 at Sat Jul  4 21:45:38 2020, MaxMem= 16642998272 cpu:         3.2
 (Enter /home/fuchs/agschreiner/public/bin/gaussian09-E.01/g09/l301.exe)
 Standard basis: CC-pVDZ (5D, 7F)
 Ernie: Thresh=  0.10000D-02 Tol=  0.10000D-05 Strict=F.
 Ernie:  8 primitive shells out of 148 were deleted.
 AO basis set in the form of general basis input (Overlap normalization):
      1 0
 S   7 1.00       0.000000000000
      0.6665000000D+04  0.6935163173D-03
      0.1000000000D+04  0.5341502433D-02
      0.2280000000D+03  0.2713667141D-01
      0.6471000000D+02  0.1019923853D+00
      0.2106000000D+02  0.2755086365D+00
      0.7495000000D+01  0.4510864331D+00
      0.2797000000D+01  0.2875657448D+00
 S   7 1.00       0.000000000000
      0.6665000000D+04  0.7733547404D-05
      0.2280000000D+03  0.2780721367D-03
      0.6471000000D+02 -0.2578756542D-02
      0.2106000000D+02 -0.8950876838D-02
      0.7495000000D+01 -0.1060588547D+00
      0.2797000000D+01 -0.1315176856D+00
      0.5215000000D+00  0.1099486598D+01
 S   1 1.00       0.000000000000
      0.1596000000D+00  0.1000000000D+01
 P   3 1.00       0.000000000000
      0.9439000000D+01  0.5697925159D-01
      0.2002000000D+01  0.3132072115D+00
      0.5456000000D+00  0.7603767417D+00
 P   1 1.00       0.000000000000
      0.1517000000D+00  0.1000000000D+01
 D   1 1.00       0.000000000000
      0.5500000000D+00  0.1000000000D+01
 ****
      2 0
 S   3 1.00       0.000000000000
      0.1301000000D+02  0.3349872639D-01
      0.1962000000D+01  0.2348008012D+00
      0.4446000000D+00  0.8136829579D+00
 S   1 1.00       0.000000000000
      0.1220000000D+00  0.1000000000D+01
 P   1 1.00       0.000000000000
      0.7270000000D+00  0.1000000000D+01
 ****
      3 0
 S   3 1.00       0.000000000000
      0.1301000000D+02  0.3349872639D-01
      0.1962000000D+01  0.2348008012D+00
      0.4446000000D+00  0.8136829579D+00
 S   1 1.00       0.000000000000
      0.1220000000D+00  0.1000000000D+01
 P   1 1.00       0.000000000000
      0.7270000000D+00  0.1000000000D+01
 ****
      4 0
 S   3 1.00       0.000000000000
      0.1301000000D+02  0.3349872639D-01
      0.1962000000D+01  0.2348008012D+00
      0.4446000000D+00  0.8136829579D+00
 S   1 1.00       0.000000000000
      0.1220000000D+00  0.1000000000D+01
 P   1 1.00       0.000000000000
      0.7270000000D+00  0.1000000000D+01
 ****
      5 0
 S   7 1.00       0.000000000000
      0.6665000000D+04  0.6935163173D-03
      0.1000000000D+04  0.5341502433D-02
      0.2280000000D+03  0.2713667141D-01
      0.6471000000D+02  0.1019923853D+00
      0.2106000000D+02  0.2755086365D+00
      0.7495000000D+01  0.4510864331D+00
      0.2797000000D+01  0.2875657448D+00
 S   7 1.00       0.000000000000
      0.6665000000D+04  0.7733547404D-05
      0.2280000000D+03  0.2780721367D-03
      0.6471000000D+02 -0.2578756542D-02
      0.2106000000D+02 -0.8950876838D-02
      0.7495000000D+01 -0.1060588547D+00
      0.2797000000D+01 -0.1315176856D+00
      0.5215000000D+00  0.1099486598D+01
 S   1 1.00       0.000000000000
      0.1596000000D+00  0.1000000000D+01
 P   3 1.00       0.000000000000
      0.9439000000D+01  0.5697925159D-01
      0.2002000000D+01  0.3132072115D+00
      0.5456000000D+00  0.7603767417D+00
 P   1 1.00       0.000000000000
      0.1517000000D+00  0.1000000000D+01
 D   1 1.00       0.000000000000
      0.5500000000D+00  0.1000000000D+01
 ****
      6 0
 S   3 1.00       0.000000000000
      0.1301000000D+02  0.3349872639D-01
      0.1962000000D+01  0.2348008012D+00
      0.4446000000D+00  0.8136829579D+00
 S   1 1.00       0.000000000000
      0.1220000000D+00  0.1000000000D+01
 P   1 1.00       0.000000000000
      0.7270000000D+00  0.1000000000D+01
 ****
      7 0
 S   3 1.00       0.000000000000
      0.1301000000D+02  0.3349872639D-01
      0.1962000000D+01  0.2348008012D+00
      0.4446000000D+00  0.8136829579D+00
 S   1 1.00       0.000000000000
      0.1220000000D+00  0.1000000000D+01
 P   1 1.00       0.000000000000
      0.7270000000D+00  0.1000000000D+01
 ****
      8 0
 S   3 1.00       0.000000000000
      0.1301000000D+02  0.3349872639D-01
      0.1962000000D+01  0.2348008012D+00
      0.4446000000D+00  0.8136829579D+00
 S   1 1.00       0.000000000000
      0.1220000000D+00  0.1000000000D+01
 P   1 1.00       0.000000000000
      0.7270000000D+00  0.1000000000D+01
 ****
      9 0
 S   7 1.00       0.000000000000
      0.6665000000D+04  0.6935163173D-03
      0.1000000000D+04  0.5341502433D-02
      0.2280000000D+03  0.2713667141D-01
      0.6471000000D+02  0.1019923853D+00
      0.2106000000D+02  0.2755086365D+00
      0.7495000000D+01  0.4510864331D+00
      0.2797000000D+01  0.2875657448D+00
 S   7 1.00       0.000000000000
      0.6665000000D+04  0.7733547404D-05
      0.2280000000D+03  0.2780721367D-03
      0.6471000000D+02 -0.2578756542D-02
      0.2106000000D+02 -0.8950876838D-02
      0.7495000000D+01 -0.1060588547D+00
      0.2797000000D+01 -0.1315176856D+00
      0.5215000000D+00  0.1099486598D+01
 S   1 1.00       0.000000000000
      0.1596000000D+00  0.1000000000D+01
 P   3 1.00       0.000000000000
      0.9439000000D+01  0.5697925159D-01
      0.2002000000D+01  0.3132072115D+00
      0.5456000000D+00  0.7603767417D+00
 P   1 1.00       0.000000000000
      0.1517000000D+00  0.1000000000D+01
 D   1 1.00       0.000000000000
      0.5500000000D+00  0.1000000000D+01
 ****
     10 0
 S   3 1.00       0.000000000000
      0.1301000000D+02  0.3349872639D-01
      0.1962000000D+01  0.2348008012D+00
      0.4446000000D+00  0.8136829579D+00
 S   1 1.00       0.000000000000
      0.1220000000D+00  0.1000000000D+01
 P   1 1.00       0.000000000000
      0.7270000000D+00  0.1000000000D+01
 ****
     11 0
 S   3 1.00       0.000000000000
      0.1301000000D+02  0.3349872639D-01
      0.1962000000D+01  0.2348008012D+00
      0.4446000000D+00  0.8136829579D+00
 S   1 1.00       0.000000000000
      0.1220000000D+00  0.1000000000D+01
 P   1 1.00       0.000000000000
      0.7270000000D+00  0.1000000000D+01
 ****
     12 0
 S   3 1.00       0.000000000000
      0.1301000000D+02  0.3349872639D-01
      0.1962000000D+01  0.2348008012D+00
      0.4446000000D+00  0.8136829579D+00
 S   1 1.00       0.000000000000
      0.1220000000D+00  0.1000000000D+01
 P   1 1.00       0.000000000000
      0.7270000000D+00  0.1000000000D+01
 ****
     13 0
 S   7 1.00       0.000000000000
      0.6665000000D+04  0.6935163173D-03
      0.1000000000D+04  0.5341502433D-02
      0.2280000000D+03  0.2713667141D-01
      0.6471000000D+02  0.1019923853D+00
      0.2106000000D+02  0.2755086365D+00
      0.7495000000D+01  0.4510864331D+00
      0.2797000000D+01  0.2875657448D+00
 S   7 1.00       0.000000000000
      0.6665000000D+04  0.7733547404D-05
      0.2280000000D+03  0.2780721367D-03
      0.6471000000D+02 -0.2578756542D-02
      0.2106000000D+02 -0.8950876838D-02
      0.7495000000D+01 -0.1060588547D+00
      0.2797000000D+01 -0.1315176856D+00
      0.5215000000D+00  0.1099486598D+01
 S   1 1.00       0.000000000000
      0.1596000000D+00  0.1000000000D+01
 P   3 1.00       0.000000000000
      0.9439000000D+01  0.5697925159D-01
      0.2002000000D+01  0.3132072115D+00
      0.5456000000D+00  0.7603767417D+00
 P   1 1.00       0.000000000000
      0.1517000000D+00  0.1000000000D+01
 D   1 1.00       0.000000000000
      0.5500000000D+00  0.1000000000D+01
 ****
     14 0
 S   3 1.00       0.000000000000
      0.1301000000D+02  0.3349872639D-01
      0.1962000000D+01  0.2348008012D+00
      0.4446000000D+00  0.8136829579D+00
 S   1 1.00       0.000000000000
      0.1220000000D+00  0.1000000000D+01
 P   1 1.00       0.000000000000
      0.7270000000D+00  0.1000000000D+01
 ****
     15 0
 S   3 1.00       0.000000000000
      0.1301000000D+02  0.3349872639D-01
      0.1962000000D+01  0.2348008012D+00
      0.4446000000D+00  0.8136829579D+00
 S   1 1.00       0.000000000000
      0.1220000000D+00  0.1000000000D+01
 P   1 1.00       0.000000000000
      0.7270000000D+00  0.1000000000D+01
 ****
     16 0
 S   3 1.00       0.000000000000
      0.1301000000D+02  0.3349872639D-01
      0.1962000000D+01  0.2348008012D+00
      0.4446000000D+00  0.8136829579D+00
 S   1 1.00       0.000000000000
      0.1220000000D+00  0.1000000000D+01
 P   1 1.00       0.000000000000
      0.7270000000D+00  0.1000000000D+01
 ****

   116 basis functions,   216 primitive gaussians,   120 cartesian basis functions
    18 alpha electrons       18 beta electrons
       nuclear repulsion energy        86.3978256030 Hartrees.
 IExCor= 1009 DFT=T Ex=PBE Corr=PBE ExCW=0 ScaHFX=  0.000000
 ScaDFX=  1.000000  1.000000  1.000000  1.000000 ScalE2=  1.000000  1.000000
 IRadAn=      5 IRanWt=     -1 IRanGd=            0 ICorTp=0 IEmpDi=141
 NAtoms=   16 NActive=   16 NUniq=   16 SFac= 1.00D+00 NAtFMM=   60 NAOKFM=F Big=F
 Integral buffers will be    131072 words long.
 Raffenetti 2 integral format.
 Two-electron integral symmetry is turned off.
 R6Disp:  Grimme-D3(BJ) Dispersion energy=       -0.0040617445 Hartrees.
 Nuclear repulsion after empirical dispersion term =       86.3937638586 Hartrees.
 Leave Link  301 at Sat Jul  4 21:45:40 2020, MaxMem= 16642998272 cpu:        12.7
 (Enter /home/fuchs/agschreiner/public/bin/gaussian09-E.01/g09/l302.exe)
 NPDir=0 NMtPBC=     1 NCelOv=     1 NCel=       1 NClECP=     1 NCelD=      1
         NCelK=      1 NCelE2=     1 NClLst=     1 CellRange=     0.0.
 One-electron integrals computed using PRISM.
 NBasis=   116 RedAO= T EigKep=  2.58D-02  NBF=   116
 NBsUse=   116 1.00D-06 EigRej= -1.00D+00 NBFU=   116
 Precomputing XC quadrature grid using
 IXCGrd= 4 IRadAn=           5 IRanWt=          -1 IRanGd=           0 AccXCQ= 0.00D+00.
 Generated NRdTot=       0 NPtTot=           0 NUsed=           0 NTot=          32
 NSgBfM=   119   119   119   119   119 MxSgAt=    16 MxSgA2=    16.
 Leave Link  302 at Sat Jul  4 21:45:42 2020, MaxMem= 16642998272 cpu:        15.9
 (Enter /home/fuchs/agschreiner/public/bin/gaussian09-E.01/g09/l303.exe)
 DipDrv:  MaxL=1.
 Leave Link  303 at Sat Jul  4 21:45:43 2020, MaxMem= 16642998272 cpu:         4.4
 (Enter /home/fuchs/agschreiner/public/bin/gaussian09-E.01/g09/l401.exe)
 ExpMin= 1.22D-01 ExpMax= 6.67D+03 ExpMxC= 2.28D+02 IAcc=3 IRadAn=         5 AccDes= 0.00D+00
 Harris functional with IExCor= 1009 and IRadAn=       5 diagonalized for initial guess.
 HarFok:  IExCor= 1009 AccDes= 0.00D+00 IRadAn=         5 IDoV= 1 UseB2=F ITyADJ=14
 ICtDFT=  3500011 ScaDFX=  1.000000  1.000000  1.000000  1.000000
 FoFCou: FMM=F IPFlag=           0 FMFlag=      100000 FMFlg1=           0
         NFxFlg=           0 DoJE=T BraDBF=F KetDBF=T FulRan=T
         wScrn=  0.000000 ICntrl=     500 IOpCl=  0 I1Cent=   200000004 NGrid=           0
         NMat0=    1 NMatS0=      1 NMatT0=    0 NMatD0=    1 NMtDS0=    0 NMtDT0=    0
 Symmetry not used in FoFCou.
 Harris En= -159.071885314126    
 JPrj=0 DoOrth=F DoCkMO=F.
 Leave Link  401 at Sat Jul  4 21:45:46 2020, MaxMem= 16642998272 cpu:        20.8
 (Enter /home/fuchs/agschreiner/public/bin/gaussian09-E.01/g09/l502.exe)
 Closed shell SCF:
 Using DIIS extrapolation, IDIIS=  1040.
 Two-electron integral symmetry not used.
 Keep J ints in memory in canonical form, NReq=24040067.
 IVT=       64902 IEndB=       64902 NGot= 16642998272 MDV= 16619905080
 LenX= 16619905080 LenY= 16619890239
 Requested convergence on RMS density matrix=1.00D-08 within 128 cycles.
 Requested convergence on MAX density matrix=1.00D-06.
 Requested convergence on             energy=1.00D-06.
 No special actions if energy rises.
 FoFCou: FMM=F IPFlag=           0 FMFlag=           0 FMFlg1=           0
         NFxFlg=           0 DoJE=F BraDBF=F KetDBF=F FulRan=T
         wScrn=  0.000000 ICntrl=     600 IOpCl=  0 I1Cent=           0 NGrid=           0
         NMat0=    1 NMatS0=   6786 NMatT0=    0 NMatD0=    1 NMtDS0=    0 NMtDT0=    0
 Symmetry not used in FoFCou.
 Integral accuracy reduced to 1.0D-05 until final iterations.

 Cycle   1  Pass 0  IDiag  1:
 E= -158.581945498747    
 DIIS: error= 5.32D-02 at cycle   1 NSaved=   1.
 NSaved= 1 IEnMin= 1 EnMin= -158.581945498747     IErMin= 1 ErrMin= 5.32D-02
 ErrMax= 5.32D-02  0.00D+00 EMaxC= 1.00D-01 BMatC= 2.04D-01 BMatP= 2.04D-01
 IDIUse=3 WtCom= 4.68D-01 WtEn= 5.32D-01
 Coeff-Com:  0.100D+01
 Coeff-En:   0.100D+01
 Coeff:      0.100D+01
 Gap=    -0.285 Goal=   None    Shift=    0.000
 GapD=   -0.285 DampG=0.250 DampE=0.500 DampFc=0.2500 IDamp=-1.
 Damping current iteration by 2.50D-01
 RMSDP=1.31D-02 MaxDP=2.81D-01              OVMax= 8.84D-01

 Cycle   2  Pass 0  IDiag  1:
 E= -158.799124169351     Delta-E=       -0.217178670605 Rises=F Damp=T
 DIIS: error= 2.05D-02 at cycle   2 NSaved=   2.
 NSaved= 2 IEnMin= 2 EnMin= -158.799124169351     IErMin= 2 ErrMin= 2.05D-02
 ErrMax= 2.05D-02  0.00D+00 EMaxC= 1.00D-01 BMatC= 2.88D-02 BMatP= 2.04D-01
 IDIUse=3 WtCom= 7.95D-01 WtEn= 2.05D-01
 Coeff-Com: -0.113D+00 0.111D+01
 Coeff-En:   0.000D+00 0.100D+01
 Coeff:     -0.901D-01 0.109D+01
 Gap=     0.089 Goal=   None    Shift=    0.000
 RMSDP=7.61D-03 MaxDP=1.81D-01 DE=-2.17D-01 OVMax= 9.98D-01

 Cycle   3  Pass 0  IDiag  1:
 E= -158.182737036956     Delta-E=        0.616387132395 Rises=F Damp=F
 DIIS: error= 3.61D-02 at cycle   3 NSaved=   3.
 NSaved= 3 IEnMin= 2 EnMin= -158.799124169351     IErMin= 2 ErrMin= 2.05D-02
 ErrMax= 3.61D-02  0.00D+00 EMaxC= 1.00D-01 BMatC= 2.35D-01 BMatP= 2.88D-02
 IDIUse=2 WtCom= 0.00D+00 WtEn= 1.00D+00
 Coeff-En:   0.000D+00 0.838D+00 0.162D+00
 Coeff:      0.000D+00 0.838D+00 0.162D+00
 Gap=    -0.083 Goal=   None    Shift=    0.000
 RMSDP=1.15D-02 MaxDP=2.90D-01 DE= 6.16D-01 OVMax= 9.96D-01

 Cycle   4  Pass 0  IDiag  1:
 E= -158.061843275352     Delta-E=        0.120893761604 Rises=F Damp=F
 DIIS: error= 4.28D-02 at cycle   4 NSaved=   4.
 NSaved= 4 IEnMin= 2 EnMin= -158.799124169351     IErMin= 2 ErrMin= 2.05D-02
 ErrMax= 4.28D-02  0.00D+00 EMaxC= 1.00D-01 BMatC= 2.58D-01 BMatP= 2.88D-02
 IDIUse=2 WtCom= 0.00D+00 WtEn= 1.00D+00
 EnCoef did     2 forward-backward iterations
 Coeff-En:   0.785D-01 0.000D+00 0.484D+00 0.437D+00
 Coeff:      0.785D-01 0.000D+00 0.484D+00 0.437D+00
 Gap=    -0.036 Goal=   None    Shift=    0.000
 RMSDP=8.46D-03 MaxDP=3.34D-01 DE= 1.21D-01 OVMax= 9.97D-01

 Problem detected with inexpensive integrals.
 Switching to full accuracy and repeating last cycle.
 Cycle   5  Pass 1  IDiag  1:
 E= -158.061840834477     Delta-E=        0.000002440875 Rises=F Damp=F
 DIIS: error= 4.28D-02 at cycle   1 NSaved=   1.
 NSaved= 1 IEnMin= 1 EnMin= -158.061840834477     IErMin= 1 ErrMin= 4.28D-02
 ErrMax= 4.28D-02  0.00D+00 EMaxC= 1.00D-01 BMatC= 2.58D-01 BMatP= 2.58D-01
 IDIUse=3 WtCom= 5.72D-01 WtEn= 4.28D-01
 Coeff-Com:  0.100D+01
 Coeff-En:   0.100D+01
 Coeff:      0.100D+01
 Gap=    -0.760 Goal=   None    Shift=    0.000
 GapD=   -0.760 DampG=0.250 DampE=0.500 DampFc=0.2500 IDamp=-1.
 Damping current iteration by 2.50D-01
 RMSDP=6.60D-02 MaxDP=2.08D+00 DE= 2.44D-06 OVMax= 9.96D-01

 Cycle   6  Pass 1  IDiag  1:
 E= -157.677348148590     Delta-E=        0.384492685887 Rises=F Damp=T
 DIIS: error= 2.00D-02 at cycle   2 NSaved=   2.
 NSaved= 2 IEnMin= 1 EnMin= -158.061840834477     IErMin= 2 ErrMin= 2.00D-02
 ErrMax= 2.00D-02  0.00D+00 EMaxC= 1.00D-01 BMatC= 4.89D-02 BMatP= 2.58D-01
 IDIUse=3 WtCom= 8.00D-01 WtEn= 2.00D-01
 Coeff-Com:  0.238D+00 0.762D+00
 Coeff-En:   0.620D+00 0.380D+00
 Coeff:      0.315D+00 0.685D+00
 Gap=    -0.045 Goal=   None    Shift=    0.000
 RMSDP=1.83D-02 MaxDP=5.52D-01 DE= 3.84D-01 OVMax= 1.00D+00

 Cycle   7  Pass 1  IDiag  1:
 E= -157.867143947705     Delta-E=       -0.189795799115 Rises=F Damp=F
 DIIS: error= 5.34D-02 at cycle   3 NSaved=   3.
 NSaved= 3 IEnMin= 1 EnMin= -158.061840834477     IErMin= 2 ErrMin= 2.00D-02
 ErrMax= 5.34D-02  0.00D+00 EMaxC= 1.00D-01 BMatC= 4.41D-01 BMatP= 4.89D-02
 IDIUse=2 WtCom= 0.00D+00 WtEn= 1.00D+00
 EnCoef did   100 forward-backward iterations
 Coeff-En:   0.526D+00 0.469D-02 0.469D+00
 Coeff:      0.526D+00 0.469D-02 0.469D+00
 Gap=     0.014 Goal=   None    Shift=    0.000
 RMSDP=2.92D-03 MaxDP=6.98D-02 DE=-1.90D-01 OVMax= 1.39D-01

 Cycle   8  Pass 1  IDiag  1:
 E= -158.219399610822     Delta-E=       -0.352255663116 Rises=F Damp=F
 DIIS: error= 3.28D-02 at cycle   4 NSaved=   4.
 NSaved= 4 IEnMin= 4 EnMin= -158.219399610822     IErMin= 2 ErrMin= 2.00D-02
 ErrMax= 3.28D-02  0.00D+00 EMaxC= 1.00D-01 BMatC= 1.59D-01 BMatP= 4.89D-02
 IDIUse=2 WtCom= 0.00D+00 WtEn= 1.00D+00
 Coeff-En:   0.474D+00 0.000D+00 0.000D+00 0.526D+00
 Coeff:      0.474D+00 0.000D+00 0.000D+00 0.526D+00
 Gap=    -0.010 Goal=   None    Shift=    0.000
 RMSDP=9.06D-03 MaxDP=2.22D-01 DE=-3.52D-01 OVMax= 9.37D-01

 Cycle   9  Pass 1  IDiag  1:
 E= -158.569906623039     Delta-E=       -0.350507012217 Rises=F Damp=F
 DIIS: error= 4.10D-02 at cycle   5 NSaved=   5.
 NSaved= 5 IEnMin= 5 EnMin= -158.569906623039     IErMin= 2 ErrMin= 2.00D-02
 ErrMax= 4.10D-02  0.00D+00 EMaxC= 1.00D-01 BMatC= 1.17D-01 BMatP= 4.89D-02
 IDIUse=2 WtCom= 0.00D+00 WtEn= 1.00D+00
 EnCoef did     5 forward-backward iterations
 Coeff-En:   0.435D+00 0.000D+00 0.000D+00 0.501D+00 0.639D-01
 Coeff:      0.435D+00 0.000D+00 0.000D+00 0.501D+00 0.639D-01
 Gap=    -0.006 Goal=   None    Shift=    0.000
 RMSDP=1.00D-02 MaxDP=2.22D-01 DE=-3.51D-01 OVMax= 9.70D-01

 Cycle  10  Pass 1  IDiag  1:
 E= -158.140193259932     Delta-E=        0.429713363107 Rises=F Damp=F
 DIIS: error= 4.00D-02 at cycle   6 NSaved=   6.
 NSaved= 6 IEnMin= 5 EnMin= -158.569906623039     IErMin= 2 ErrMin= 2.00D-02
 ErrMax= 4.00D-02  0.00D+00 EMaxC= 1.00D-01 BMatC= 2.18D-01 BMatP= 4.89D-02
 IDIUse=2 WtCom= 0.00D+00 WtEn= 1.00D+00
 EnCoef did    82 forward-backward iterations
 Coeff-En:   0.118D+00 0.000D+00 0.000D+00 0.252D+00 0.396D+00 0.234D+00
 Coeff:      0.118D+00 0.000D+00 0.000D+00 0.252D+00 0.396D+00 0.234D+00
 Gap=    -0.006 Goal=   None    Shift=    0.000
 RMSDP=8.14D-03 MaxDP=2.58D-01 DE= 4.30D-01 OVMax= 9.46D-01

 Cycle  11  Pass 1  IDiag  1:
 E= -158.148416881597     Delta-E=       -0.008223621664 Rises=F Damp=F
 DIIS: error= 3.70D-02 at cycle   7 NSaved=   7.
 NSaved= 7 IEnMin= 5 EnMin= -158.569906623039     IErMin= 2 ErrMin= 2.00D-02
 ErrMax= 3.70D-02  0.00D+00 EMaxC= 1.00D-01 BMatC= 1.99D-01 BMatP= 4.89D-02
 IDIUse=2 WtCom= 0.00D+00 WtEn= 1.00D+00
 EnCoef did    82 forward-backward iterations
 Coeff-En:   0.523D-01 0.000D+00 0.000D+00 0.196D+00 0.446D+00 0.263D+00
 Coeff-En:   0.436D-01
 Coeff:      0.523D-01 0.000D+00 0.000D+00 0.196D+00 0.446D+00 0.263D+00
 Coeff:      0.436D-01
 Gap=    -0.003 Goal=   None    Shift=    0.000
 RMSDP=7.71D-03 MaxDP=2.34D-01 DE=-8.22D-03 OVMax= 7.75D-01

 Cycle  12  Pass 1  IDiag  1:
 E= -158.489225594883     Delta-E=       -0.340808713286 Rises=F Damp=F
 DIIS: error= 5.74D-02 at cycle   8 NSaved=   8.
 NSaved= 8 IEnMin= 5 EnMin= -158.569906623039     IErMin= 2 ErrMin= 2.00D-02
 ErrMax= 5.74D-02  0.00D+00 EMaxC= 1.00D-01 BMatC= 1.54D-01 BMatP= 4.89D-02
 IDIUse=2 WtCom= 0.00D+00 WtEn= 1.00D+00
 EnCoef did   100 forward-backward iterations
 Coeff-En:   0.380D-02 0.000D+00 0.000D+00 0.172D+00 0.447D+00 0.938D-03
 Coeff-En:   0.146D-01 0.362D+00
 Coeff:      0.380D-02 0.000D+00 0.000D+00 0.172D+00 0.447D+00 0.938D-03
 Coeff:      0.146D-01 0.362D+00
 Gap=    -0.001 Goal=   None    Shift=    0.000
 RMSDP=8.17D-03 MaxDP=2.34D-01 DE=-3.41D-01 OVMax= 6.99D-01

 Cycle  13  Pass 1  IDiag  1:
 E= -158.619950756889     Delta-E=       -0.130725162006 Rises=F Damp=F
 DIIS: error= 3.09D-02 at cycle   9 NSaved=   9.
 NSaved= 9 IEnMin= 9 EnMin= -158.619950756889     IErMin= 2 ErrMin= 2.00D-02
 ErrMax= 3.09D-02  0.00D+00 EMaxC= 1.00D-01 BMatC= 8.79D-02 BMatP= 4.89D-02
 IDIUse=2 WtCom= 0.00D+00 WtEn= 1.00D+00
 EnCoef did   100 forward-backward iterations
 Coeff-En:   0.320D-02 0.000D+00 0.000D+00 0.151D+00 0.437D+00 0.789D-03
 Coeff-En:   0.399D-02 0.359D+00 0.455D-01
 Coeff:      0.320D-02 0.000D+00 0.000D+00 0.151D+00 0.437D+00 0.789D-03
 Coeff:      0.399D-02 0.359D+00 0.455D-01
 Gap=    -0.000 Goal=   None    Shift=    0.000
 RMSDP=9.06D-03 MaxDP=2.32D-01 DE=-1.31D-01 OVMax= 9.40D-01

 Cycle  14  Pass 1  IDiag  1:
 E= -158.390560979873     Delta-E=        0.229389777016 Rises=F Damp=F
 DIIS: error= 5.84D-02 at cycle  10 NSaved=  10.
 NSaved=10 IEnMin= 9 EnMin= -158.619950756889     IErMin= 2 ErrMin= 2.00D-02
 ErrMax= 5.84D-02  0.00D+00 EMaxC= 1.00D-01 BMatC= 1.76D-01 BMatP= 4.89D-02
 IDIUse=2 WtCom= 0.00D+00 WtEn= 1.00D+00
 EnCoef did   100 forward-backward iterations
 Coeff-En:   0.239D-02 0.000D+00 0.000D+00 0.240D-04 0.285D+00 0.591D-03
 Coeff-En:   0.299D-02 0.265D+00 0.278D+00 0.166D+00
 Coeff:      0.239D-02 0.000D+00 0.000D+00 0.240D-04 0.285D+00 0.591D-03
 Coeff:      0.299D-02 0.265D+00 0.278D+00 0.166D+00
 Gap=     0.003 Goal=   None    Shift=    0.000
 RMSDP=8.07D-03 MaxDP=2.73D-01 DE= 2.29D-01 OVMax= 8.01D-01

 Cycle  15  Pass 1  IDiag  1:
 E= -158.475424996882     Delta-E=       -0.084864017009 Rises=F Damp=F
 DIIS: error= 7.31D-02 at cycle  11 NSaved=  11.
 NSaved=11 IEnMin= 9 EnMin= -158.619950756889     IErMin= 2 ErrMin= 2.00D-02
 ErrMax= 7.31D-02  0.00D+00 EMaxC= 1.00D-01 BMatC= 1.65D-01 BMatP= 4.89D-02
 IDIUse=2 WtCom= 0.00D+00 WtEn= 1.00D+00
 EnCoef did   100 forward-backward iterations
 Coeff-En:   0.000D+00 0.000D+00 0.000D+00 0.599D-02 0.000D+00 0.108D-02
 Coeff-En:   0.000D+00 0.223D-01 0.439D+00 0.287D+00 0.245D+00
 Coeff:      0.000D+00 0.000D+00 0.000D+00 0.599D-02 0.000D+00 0.108D-02
 Coeff:      0.000D+00 0.223D-01 0.439D+00 0.287D+00 0.245D+00
 Gap=    -0.002 Goal=   None    Shift=    0.000
 RMSDP=7.75D-03 MaxDP=1.56D-01 DE=-8.49D-02 OVMax= 7.97D-01

 Cycle  16  Pass 1  IDiag  1:
 E= -158.542994189980     Delta-E=       -0.067569193098 Rises=F Damp=F
 DIIS: error= 5.48D-02 at cycle  12 NSaved=  12.
 NSaved=12 IEnMin= 9 EnMin= -158.619950756889     IErMin= 2 ErrMin= 2.00D-02
 ErrMax= 5.48D-02  0.00D+00 EMaxC= 1.00D-01 BMatC= 1.31D-01 BMatP= 4.89D-02
 IDIUse=2 WtCom= 0.00D+00 WtEn= 1.00D+00
 EnCoef did   100 forward-backward iterations
 Coeff-En:   0.000D+00 0.000D+00 0.000D+00 0.561D-02 0.000D+00 0.102D-02
 Coeff-En:   0.000D+00 0.217D-02 0.438D+00 0.278D+00 0.247D+00 0.285D-01
 Coeff:      0.000D+00 0.000D+00 0.000D+00 0.561D-02 0.000D+00 0.102D-02
 Coeff:      0.000D+00 0.217D-02 0.438D+00 0.278D+00 0.247D+00 0.285D-01
 Gap=    -0.000 Goal=   None    Shift=    0.000
 RMSDP=6.49D-03 MaxDP=1.64D-01 DE=-6.76D-02 OVMax= 7.35D-01

 Cycle  17  Pass 1  IDiag  1:
 E= -158.534659236268     Delta-E=        0.008334953712 Rises=F Damp=F
 DIIS: error= 6.76D-02 at cycle  13 NSaved=  13.
 NSaved=13 IEnMin= 9 EnMin= -158.619950756889     IErMin= 2 ErrMin= 2.00D-02
 ErrMax= 6.76D-02  0.00D+00 EMaxC= 1.00D-01 BMatC= 1.51D-01 BMatP= 4.89D-02
 IDIUse=2 WtCom= 0.00D+00 WtEn= 1.00D+00
 EnCoef did   100 forward-backward iterations
 Coeff-En:   0.000D+00 0.000D+00 0.000D+00 0.660D-02 0.000D+00 0.119D-02
 Coeff-En:   0.000D+00 0.255D-02 0.435D+00 0.171D-03 0.186D+00 0.574D-01
 Coeff-En:   0.311D+00
 Coeff:      0.000D+00 0.000D+00 0.000D+00 0.660D-02 0.000D+00 0.119D-02
 Coeff:      0.000D+00 0.255D-02 0.435D+00 0.171D-03 0.186D+00 0.574D-01
 Coeff:      0.311D+00
 Gap=    -0.001 Goal=   None    Shift=    0.000
 RMSDP=7.82D-03 MaxDP=2.23D-01 DE= 8.33D-03 OVMax= 9.17D-01

 Cycle  18  Pass 1  IDiag  1:
 E= -158.557258031661     Delta-E=       -0.022598795393 Rises=F Damp=F
 DIIS: error= 5.59D-02 at cycle  14 NSaved=  14.
 NSaved=14 IEnMin= 9 EnMin= -158.619950756889     IErMin= 2 ErrMin= 2.00D-02
 ErrMax= 5.59D-02  0.00D+00 EMaxC= 1.00D-01 BMatC= 1.39D-01 BMatP= 4.89D-02
 IDIUse=2 WtCom= 0.00D+00 WtEn= 1.00D+00
 EnCoef did   100 forward-backward iterations
 Coeff-En:   0.000D+00 0.000D+00 0.000D+00 0.617D-02 0.000D+00 0.112D-02
 Coeff-En:   0.000D+00 0.239D-02 0.435D+00 0.160D-03 0.180D+00 0.351D-01
 Coeff-En:   0.317D+00 0.234D-01
 Coeff:      0.000D+00 0.000D+00 0.000D+00 0.617D-02 0.000D+00 0.112D-02
 Coeff:      0.000D+00 0.239D-02 0.435D+00 0.160D-03 0.180D+00 0.351D-01
 Coeff:      0.317D+00 0.234D-01
 Gap=     0.001 Goal=   None    Shift=    0.000
 RMSDP=2.55D-04 MaxDP=4.62D-03 DE=-2.26D-02 OVMax= 3.09D-02

 Cycle  19  Pass 1  IDiag  1:
 E= -158.553321517517     Delta-E=        0.003936514144 Rises=F Damp=F
 DIIS: error= 5.64D-02 at cycle  15 NSaved=  15.
 NSaved=15 IEnMin= 9 EnMin= -158.619950756889     IErMin= 2 ErrMin= 2.00D-02
 ErrMax= 5.64D-02  0.00D+00 EMaxC= 1.00D-01 BMatC= 1.42D-01 BMatP= 4.89D-02
 IDIUse=2 WtCom= 0.00D+00 WtEn= 1.00D+00
 EnCoef did   100 forward-backward iterations
 Rare condition: small coef for last iteration:  0.105D-15
 Coeff-En:   0.000D+00 0.000D+00 0.000D+00 0.358D-01 0.134D+00 0.000D+00
 Coeff-En:   0.000D+00 0.000D+00 0.342D+00 0.977D-02 0.120D+00 0.000D+00
 Coeff-En:   0.175D+00 0.000D+00 0.184D+00
 Coeff:      0.000D+00 0.000D+00 0.000D+00 0.358D-01 0.134D+00 0.000D+00
 Coeff:      0.000D+00 0.000D+00 0.342D+00 0.977D-02 0.120D+00 0.000D+00
 Coeff:      0.175D+00 0.000D+00 0.184D+00
 Gap=    -0.017 Goal=   None    Shift=    0.000
 RMSDP=7.96D-03 MaxDP=2.66D-01 DE= 3.94D-03 OVMax= 7.69D-01

 Cycle  20  Pass 1  IDiag  1:
 E= -158.147945514435     Delta-E=        0.405376003083 Rises=F Damp=F
 DIIS: error= 4.03D-02 at cycle  16 NSaved=  16.
 NSaved=16 IEnMin= 9 EnMin= -158.619950756889     IErMin= 2 ErrMin= 2.00D-02
 ErrMax= 4.03D-02  0.00D+00 EMaxC= 1.00D-01 BMatC= 2.05D-01 BMatP= 4.89D-02
 IDIUse=2 WtCom= 0.00D+00 WtEn= 1.00D+00
 EnCoef did   100 forward-backward iterations
 Rare condition: small coef for last iteration:  0.000D+00
 Coeff-En:   0.000D+00 0.000D+00 0.000D+00 0.366D-01 0.113D+00 0.000D+00
 Coeff-En:   0.000D+00 0.000D+00 0.362D+00 0.126D-01 0.148D+00 0.000D+00
 Coeff-En:   0.897D-01 0.898D-02 0.155D+00 0.745D-01
 Coeff:      0.000D+00 0.000D+00 0.000D+00 0.366D-01 0.113D+00 0.000D+00
 Coeff:      0.000D+00 0.000D+00 0.362D+00 0.126D-01 0.148D+00 0.000D+00
 Coeff:      0.897D-01 0.898D-02 0.155D+00 0.745D-01
 Gap=     0.018 Goal=   None    Shift=    0.000
 RMSDP=5.33D-05 MaxDP=1.21D-03 DE= 4.05D-01 OVMax= 3.15D-03

 Cycle  21  Pass 1  IDiag  1:
 E= -158.152725739460     Delta-E=       -0.004780225025 Rises=F Damp=F
 DIIS: error= 4.03D-02 at cycle  17 NSaved=  17.
 NSaved=17 IEnMin= 9 EnMin= -158.619950756889     IErMin= 2 ErrMin= 2.00D-02
 ErrMax= 4.03D-02  0.00D+00 EMaxC= 1.00D-01 BMatC= 2.03D-01 BMatP= 4.89D-02
 IDIUse=2 WtCom= 0.00D+00 WtEn= 1.00D+00
 EnCoef did   100 forward-backward iterations
 Coeff-En:   0.000D+00 0.000D+00 0.000D+00 0.512D-02 0.111D-02 0.000D+00
 Coeff-En:   0.000D+00 0.000D+00 0.435D+00 0.170D-04 0.169D+00 0.000D+00
 Coeff-En:   0.325D+00 0.912D-02 0.553D-01 0.000D+00 0.550D-04
 Coeff:      0.000D+00 0.000D+00 0.000D+00 0.512D-02 0.111D-02 0.000D+00
 Coeff:      0.000D+00 0.000D+00 0.435D+00 0.170D-04 0.169D+00 0.000D+00
 Coeff:      0.325D+00 0.912D-02 0.553D-01 0.000D+00 0.550D-04
 Gap=     0.003 Goal=   None    Shift=    0.000
 RMSDP=7.91D-03 MaxDP=2.63D-01 DE=-4.78D-03 OVMax= 7.49D-01

 Cycle  22  Pass 1  IDiag  1:
 E= -158.561105505622     Delta-E=       -0.408379766162 Rises=F Damp=F
 DIIS: error= 5.59D-02 at cycle  18 NSaved=  18.
 NSaved=18 IEnMin= 9 EnMin= -158.619950756889     IErMin= 2 ErrMin= 2.00D-02
 ErrMax= 5.59D-02  0.00D+00 EMaxC= 1.00D-01 BMatC= 1.40D-01 BMatP= 4.89D-02
 IDIUse=2 WtCom= 0.00D+00 WtEn= 1.00D+00
 EnCoef did   100 forward-backward iterations
 Coeff-En:   0.000D+00 0.000D+00 0.000D+00 0.482D-02 0.105D-02 0.000D+00
 Coeff-En:   0.000D+00 0.000D+00 0.435D+00 0.160D-04 0.169D+00 0.000D+00
 Coeff-En:   0.325D+00 0.187D-01 0.373D-01 0.000D+00 0.518D-04 0.861D-02
 Coeff:      0.000D+00 0.000D+00 0.000D+00 0.482D-02 0.105D-02 0.000D+00
 Coeff:      0.000D+00 0.000D+00 0.435D+00 0.160D-04 0.169D+00 0.000D+00
 Coeff:      0.325D+00 0.187D-01 0.373D-01 0.000D+00 0.518D-04 0.861D-02
 Gap=     0.001 Goal=   None    Shift=    0.000
 RMSDP=5.86D-06 MaxDP=1.34D-04 DE=-4.08D-01 OVMax= 6.38D-04

 Cycle  23  Pass 1  IDiag  1:
 E= -158.560883930556     Delta-E=        0.000221575066 Rises=F Damp=F
 DIIS: error= 5.59D-02 at cycle  19 NSaved=  19.
 NSaved=19 IEnMin= 9 EnMin= -158.619950756889     IErMin= 2 ErrMin= 2.00D-02
 ErrMax= 5.59D-02  0.00D+00 EMaxC= 1.00D-01 BMatC= 1.40D-01 BMatP= 4.89D-02
 IDIUse=2 WtCom= 0.00D+00 WtEn= 1.00D+00
 EnCoef did   100 forward-backward iterations
 Rare condition: small coef for last iteration: -0.126D-14
 Coeff-En:   0.000D+00 0.000D+00 0.000D+00 0.367D-01 0.113D+00 0.000D+00
 Coeff-En:   0.000D+00 0.000D+00 0.361D+00 0.116D-01 0.149D+00 0.000D+00
 Coeff-En:   0.889D-01 0.851D-02 0.000D+00 0.000D+00 0.738D-01 0.000D+00
 Coeff-En:   0.157D+00
 Coeff:      0.000D+00 0.000D+00 0.000D+00 0.367D-01 0.113D+00 0.000D+00
 Coeff:      0.000D+00 0.000D+00 0.361D+00 0.116D-01 0.149D+00 0.000D+00
 Coeff:      0.889D-01 0.851D-02 0.000D+00 0.000D+00 0.738D-01 0.000D+00
 Coeff:      0.157D+00
 Gap=    -0.016 Goal=   None    Shift=    0.000
 RMSDP=7.92D-03 MaxDP=2.63D-01 DE= 2.22D-04 OVMax= 7.67D-01

 Cycle  24  Pass 1  IDiag  1:
 E= -158.152235117019     Delta-E=        0.408648813537 Rises=F Damp=F
 DIIS: error= 4.03D-02 at cycle  20 NSaved=  20.
 NSaved=20 IEnMin= 9 EnMin= -158.619950756889     IErMin= 2 ErrMin= 2.00D-02
 ErrMax= 4.03D-02  0.00D+00 EMaxC= 1.00D-01 BMatC= 2.03D-01 BMatP= 4.89D-02
 IDIUse=2 WtCom= 0.00D+00 WtEn= 1.00D+00
 EnCoef did   100 forward-backward iterations
 Rare condition: small coef for last iteration:  0.128D-15
 Coeff-En:   0.000D+00 0.000D+00 0.000D+00 0.367D-01 0.113D+00 0.000D+00
 Coeff-En:   0.000D+00 0.000D+00 0.361D+00 0.116D-01 0.149D+00 0.000D+00
 Coeff-En:   0.890D-01 0.858D-02 0.000D+00 0.000D+00 0.363D-04 0.000D+00
 Coeff-En:   0.157D+00 0.737D-01
 Coeff:      0.000D+00 0.000D+00 0.000D+00 0.367D-01 0.113D+00 0.000D+00
 Coeff:      0.000D+00 0.000D+00 0.361D+00 0.116D-01 0.149D+00 0.000D+00
 Coeff:      0.890D-01 0.858D-02 0.000D+00 0.000D+00 0.363D-04 0.000D+00
 Coeff:      0.157D+00 0.737D-01
 Gap=     0.018 Goal=   None    Shift=    0.000
 RMSDP=3.44D-07 MaxDP=8.92D-06 DE= 4.09D-01 OVMax= 1.17D-05

 Cycle  25  Pass 1  IDiag  1:
 E= -158.152246903083     Delta-E=       -0.000011786064 Rises=F Damp=F
 DIIS: error= 4.03D-02 at cycle  21 NSaved=  20.
 NSaved=20 IEnMin= 9 EnMin= -158.619950756889     IErMin= 2 ErrMin= 2.00D-02
 ErrMax= 4.03D-02  0.00D+00 EMaxC= 1.00D-01 BMatC= 2.03D-01 BMatP= 4.89D-02
 IDIUse=2 WtCom= 0.00D+00 WtEn= 1.00D+00
 EnCoef did   100 forward-backward iterations
 Coeff-En:   0.000D+00 0.000D+00 0.000D+00 0.501D-02 0.312D-02 0.000D+00
 Coeff-En:   0.000D+00 0.000D+00 0.435D+00 0.170D-02 0.170D+00 0.000D+00
 Coeff-En:   0.314D+00 0.579D-02 0.000D+00 0.000D+00 0.417D-04 0.604D-01
 Coeff-En:   0.000D+00 0.503D-02
 Coeff:      0.000D+00 0.000D+00 0.000D+00 0.501D-02 0.312D-02 0.000D+00
 Coeff:      0.000D+00 0.000D+00 0.435D+00 0.170D-02 0.170D+00 0.000D+00
 Coeff:      0.314D+00 0.579D-02 0.000D+00 0.000D+00 0.417D-04 0.604D-01
 Coeff:      0.000D+00 0.503D-02
 Gap=     0.003 Goal=   None    Shift=    0.000
 RMSDP=7.90D-03 MaxDP=2.61D-01 DE=-1.18D-05 OVMax= 7.49D-01

 Cycle  26  Pass 1  IDiag  1:
 E= -158.564649127073     Delta-E=       -0.412402223990 Rises=F Damp=F
 DIIS: error= 5.55D-02 at cycle  22 NSaved=  20.
 NSaved=20 IEnMin= 9 EnMin= -158.619950756889     IErMin= 2 ErrMin= 2.00D-02
 ErrMax= 5.55D-02  0.00D+00 EMaxC= 1.00D-01 BMatC= 1.39D-01 BMatP= 4.89D-02
 IDIUse=2 WtCom= 0.00D+00 WtEn= 1.00D+00
 EnCoef did   100 forward-backward iterations
 Rare condition: small coef for last iteration: -0.201D-14
 Coeff-En:   0.000D+00 0.000D+00 0.000D+00 0.367D-01 0.113D+00 0.000D+00
 Coeff-En:   0.000D+00 0.000D+00 0.361D+00 0.116D-01 0.149D+00 0.000D+00
 Coeff-En:   0.888D-01 0.834D-02 0.000D+00 0.000D+00 0.362D-04 0.000D+00
 Coeff-En:   0.731D-01 0.158D+00
 Coeff:      0.000D+00 0.000D+00 0.000D+00 0.367D-01 0.113D+00 0.000D+00
 Coeff:      0.000D+00 0.000D+00 0.361D+00 0.116D-01 0.149D+00 0.000D+00
 Coeff:      0.888D-01 0.834D-02 0.000D+00 0.000D+00 0.362D-04 0.000D+00
 Coeff:      0.731D-01 0.158D+00
 Gap=    -0.016 Goal=   None    Shift=    0.000
 RMSDP=7.90D-03 MaxDP=2.61D-01 DE=-4.12D-01 OVMax= 7.64D-01

 Cycle  27  Pass 1  IDiag  1:
 E= -158.152211755304     Delta-E=        0.412437371769 Rises=F Damp=F
 DIIS: error= 4.03D-02 at cycle  23 NSaved=  20.
 NSaved=20 IEnMin= 9 EnMin= -158.619950756889     IErMin= 2 ErrMin= 2.00D-02
 ErrMax= 4.03D-02  0.00D+00 EMaxC= 1.00D-01 BMatC= 2.03D-01 BMatP= 4.89D-02
 IDIUse=2 WtCom= 0.00D+00 WtEn= 1.00D+00
 EnCoef did   100 forward-backward iterations
 Coeff-En:   0.000D+00 0.000D+00 0.000D+00 0.505D-02 0.159D-02 0.000D+00
 Coeff-En:   0.000D+00 0.000D+00 0.435D+00 0.160D-02 0.171D+00 0.000D+00
 Coeff-En:   0.315D+00 0.568D-02 0.000D+00 0.000D+00 0.422D-04 0.000D+00
 Coeff-En:   0.595D-01 0.487D-02
 Coeff:      0.000D+00 0.000D+00 0.000D+00 0.505D-02 0.159D-02 0.000D+00
 Coeff:      0.000D+00 0.000D+00 0.435D+00 0.160D-02 0.171D+00 0.000D+00
 Coeff:      0.315D+00 0.568D-02 0.000D+00 0.000D+00 0.422D-04 0.000D+00
 Coeff:      0.595D-01 0.487D-02
 Gap=     0.003 Goal=   None    Shift=    0.000
 RMSDP=7.90D-03 MaxDP=2.62D-01 DE= 4.12D-01 OVMax= 7.49D-01

 Cycle  28  Pass 1  IDiag  1:
 E= -158.564284564953     Delta-E=       -0.412072809649 Rises=F Damp=F
 DIIS: error= 5.56D-02 at cycle  24 NSaved=  20.
 NSaved=20 IEnMin= 9 EnMin= -158.619950756889     IErMin= 2 ErrMin= 2.00D-02
 ErrMax= 5.56D-02  0.00D+00 EMaxC= 1.00D-01 BMatC= 1.39D-01 BMatP= 4.89D-02
 IDIUse=2 WtCom= 0.00D+00 WtEn= 1.00D+00
 EnCoef did   100 forward-backward iterations
 Coeff-En:   0.000D+00 0.000D+00 0.000D+00 0.459D-02 0.144D-02 0.000D+00
 Coeff-En:   0.000D+00 0.000D+00 0.436D+00 0.146D-02 0.170D+00 0.000D+00
 Coeff-En:   0.317D+00 0.112D-01 0.000D+00 0.000D+00 0.384D-04 0.000D+00
 Coeff-En:   0.443D-02 0.541D-01
 Coeff:      0.000D+00 0.000D+00 0.000D+00 0.459D-02 0.144D-02 0.000D+00
 Coeff:      0.000D+00 0.000D+00 0.436D+00 0.146D-02 0.170D+00 0.000D+00
 Coeff:      0.317D+00 0.112D-01 0.000D+00 0.000D+00 0.384D-04 0.000D+00
 Coeff:      0.443D-02 0.541D-01
 Gap=     0.001 Goal=   None    Shift=    0.000
 RMSDP=1.02D-05 MaxDP=2.26D-04 DE=-4.12D-01 OVMax= 9.87D-04

 Cycle  29  Pass 1  IDiag  1:
 E= -158.563567497122     Delta-E=        0.000717067832 Rises=F Damp=F
 DIIS: error= 5.56D-02 at cycle  25 NSaved=  20.
 NSaved=20 IEnMin= 9 EnMin= -158.619950756889     IErMin= 2 ErrMin= 2.00D-02
 ErrMax= 5.56D-02  0.00D+00 EMaxC= 1.00D-01 BMatC= 1.39D-01 BMatP= 4.89D-02
 IDIUse=2 WtCom= 0.00D+00 WtEn= 1.00D+00
 EnCoef did   100 forward-backward iterations
 Coeff-En:   0.000D+00 0.000D+00 0.000D+00 0.438D-02 0.962D-03 0.000D+00
 Coeff-En:   0.000D+00 0.000D+00 0.436D+00 0.148D-02 0.170D+00 0.000D+00
 Coeff-En:   0.323D+00 0.909D-02 0.000D+00 0.000D+00 0.366D-04 0.000D+00
 Coeff-En:   0.516D-01 0.423D-02
 Coeff:      0.000D+00 0.000D+00 0.000D+00 0.438D-02 0.962D-03 0.000D+00
 Coeff:      0.000D+00 0.000D+00 0.436D+00 0.148D-02 0.170D+00 0.000D+00
 Coeff:      0.323D+00 0.909D-02 0.000D+00 0.000D+00 0.366D-04 0.000D+00
 Coeff:      0.516D-01 0.423D-02
 Gap=     0.001 Goal=   None    Shift=    0.000
 RMSDP=8.62D-05 MaxDP=1.90D-03 DE= 7.17D-04 OVMax= 9.08D-03

 Cycle  30  Pass 1  IDiag  1:
 E= -158.560085563633     Delta-E=        0.003481933489 Rises=F Damp=F
 DIIS: error= 5.60D-02 at cycle  26 NSaved=  20.
 NSaved=20 IEnMin= 9 EnMin= -158.619950756889     IErMin= 2 ErrMin= 2.00D-02
 ErrMax= 5.60D-02  0.00D+00 EMaxC= 1.00D-01 BMatC= 1.40D-01 BMatP= 4.89D-02
 IDIUse=2 WtCom= 0.00D+00 WtEn= 1.00D+00
 EnCoef did   100 forward-backward iterations
 Coeff-En:   0.000D+00 0.000D+00 0.000D+00 0.416D-02 0.913D-03 0.000D+00
 Coeff-En:   0.000D+00 0.000D+00 0.436D+00 0.141D-02 0.169D+00 0.000D+00
 Coeff-En:   0.324D+00 0.117D-01 0.000D+00 0.000D+00 0.348D-04 0.000D+00
 Coeff-En:   0.402D-02 0.490D-01
 Coeff:      0.000D+00 0.000D+00 0.000D+00 0.416D-02 0.913D-03 0.000D+00
 Coeff:      0.000D+00 0.000D+00 0.436D+00 0.141D-02 0.169D+00 0.000D+00
 Coeff:      0.324D+00 0.117D-01 0.000D+00 0.000D+00 0.348D-04 0.000D+00
 Coeff:      0.402D-02 0.490D-01
 Gap=     0.001 Goal=   None    Shift=    0.000
 RMSDP=3.16D-05 MaxDP=6.82D-04 DE= 3.48D-03 OVMax= 3.67D-03

 Cycle  31  Pass 1  IDiag  1:
 E= -158.560998855958     Delta-E=       -0.000913292325 Rises=F Damp=F
 DIIS: error= 5.59D-02 at cycle  27 NSaved=  20.
 NSaved=20 IEnMin= 9 EnMin= -158.619950756889     IErMin= 2 ErrMin= 2.00D-02
 ErrMax= 5.59D-02  0.00D+00 EMaxC= 1.00D-01 BMatC= 1.40D-01 BMatP= 4.89D-02
 IDIUse=2 WtCom= 0.00D+00 WtEn= 1.00D+00
 EnCoef did   100 forward-backward iterations
 Coeff-En:   0.000D+00 0.000D+00 0.000D+00 0.396D-02 0.869D-03 0.000D+00
 Coeff-En:   0.000D+00 0.000D+00 0.436D+00 0.134D-02 0.169D+00 0.000D+00
 Coeff-En:   0.324D+00 0.144D-01 0.000D+00 0.000D+00 0.331D-04 0.000D+00
 Coeff-En:   0.466D-01 0.382D-02
 Coeff:      0.000D+00 0.000D+00 0.000D+00 0.396D-02 0.869D-03 0.000D+00
 Coeff:      0.000D+00 0.000D+00 0.436D+00 0.134D-02 0.169D+00 0.000D+00
 Coeff:      0.324D+00 0.144D-01 0.000D+00 0.000D+00 0.331D-04 0.000D+00
 Coeff:      0.466D-01 0.382D-02
 Gap=     0.001 Goal=   None    Shift=    0.000
 RMSDP=2.35D-06 MaxDP=4.77D-05 DE=-9.13D-04 OVMax= 2.73D-04

 Cycle  32  Pass 1  IDiag  1:
 E= -158.560780423803     Delta-E=        0.000218432155 Rises=F Damp=F
 DIIS: error= 5.59D-02 at cycle  28 NSaved=  20.
 NSaved=20 IEnMin= 9 EnMin= -158.619950756889     IErMin= 2 ErrMin= 2.00D-02
 ErrMax= 5.59D-02  0.00D+00 EMaxC= 1.00D-01 BMatC= 1.40D-01 BMatP= 4.89D-02
 IDIUse=2 WtCom= 0.00D+00 WtEn= 1.00D+00
 EnCoef did   100 forward-backward iterations
 Coeff-En:   0.000D+00 0.000D+00 0.000D+00 0.378D-02 0.829D-03 0.000D+00
 Coeff-En:   0.000D+00 0.000D+00 0.436D+00 0.128D-02 0.169D+00 0.000D+00
 Coeff-En:   0.324D+00 0.167D-01 0.000D+00 0.000D+00 0.316D-04 0.000D+00
 Coeff-En:   0.364D-02 0.445D-01
 Coeff:      0.000D+00 0.000D+00 0.000D+00 0.378D-02 0.829D-03 0.000D+00
 Coeff:      0.000D+00 0.000D+00 0.436D+00 0.128D-02 0.169D+00 0.000D+00
 Coeff:      0.324D+00 0.167D-01 0.000D+00 0.000D+00 0.316D-04 0.000D+00
 Coeff:      0.364D-02 0.445D-01
 Gap=     0.001 Goal=   None    Shift=    0.000
 RMSDP=6.75D-06 MaxDP=1.42D-04 DE= 2.18D-04 OVMax= 7.93D-04

 Cycle  33  Pass 1  IDiag  1:
 E= -158.560652835963     Delta-E=        0.000127587840 Rises=F Damp=F
 DIIS: error= 5.59D-02 at cycle  29 NSaved=  20.
 NSaved=20 IEnMin= 9 EnMin= -158.619950756889     IErMin= 2 ErrMin= 2.00D-02
 ErrMax= 5.59D-02  0.00D+00 EMaxC= 1.00D-01 BMatC= 1.40D-01 BMatP= 4.89D-02
 IDIUse=2 WtCom= 0.00D+00 WtEn= 1.00D+00
 EnCoef did   100 forward-backward iterations
 Coeff-En:   0.000D+00 0.000D+00 0.000D+00 0.361D-02 0.793D-03 0.000D+00
 Coeff-En:   0.000D+00 0.000D+00 0.437D+00 0.122D-02 0.169D+00 0.000D+00
 Coeff-En:   0.324D+00 0.189D-01 0.000D+00 0.000D+00 0.302D-04 0.000D+00
 Coeff-En:   0.425D-01 0.348D-02
 Coeff:      0.000D+00 0.000D+00 0.000D+00 0.361D-02 0.793D-03 0.000D+00
 Coeff:      0.000D+00 0.000D+00 0.437D+00 0.122D-02 0.169D+00 0.000D+00
 Coeff:      0.324D+00 0.189D-01 0.000D+00 0.000D+00 0.302D-04 0.000D+00
 Coeff:      0.425D-01 0.348D-02
 Gap=     0.001 Goal=   None    Shift=    0.000
 RMSDP=1.97D-06 MaxDP=4.31D-05 DE= 1.28D-04 OVMax= 2.16D-04

 Cycle  34  Pass 1  IDiag  1:
 E= -158.560478805260     Delta-E=        0.000174030703 Rises=F Damp=F
 DIIS: error= 5.59D-02 at cycle  30 NSaved=  20.
 NSaved=20 IEnMin= 9 EnMin= -158.619950756889     IErMin= 2 ErrMin= 2.00D-02
 ErrMax= 5.59D-02  0.00D+00 EMaxC= 1.00D-01 BMatC= 1.40D-01 BMatP= 4.89D-02
 IDIUse=2 WtCom= 0.00D+00 WtEn= 1.00D+00
 EnCoef did   100 forward-backward iterations
 Coeff-En:   0.000D+00 0.000D+00 0.000D+00 0.346D-02 0.759D-03 0.000D+00
 Coeff-En:   0.000D+00 0.000D+00 0.437D+00 0.117D-02 0.168D+00 0.000D+00
 Coeff-En:   0.325D+00 0.208D-01 0.000D+00 0.000D+00 0.289D-04 0.000D+00
 Coeff-En:   0.334D-02 0.407D-01
 Coeff:      0.000D+00 0.000D+00 0.000D+00 0.346D-02 0.759D-03 0.000D+00
 Coeff:      0.000D+00 0.000D+00 0.437D+00 0.117D-02 0.168D+00 0.000D+00
 Coeff:      0.325D+00 0.208D-01 0.000D+00 0.000D+00 0.289D-04 0.000D+00
 Coeff:      0.334D-02 0.407D-01
 Gap=     0.001 Goal=   None    Shift=    0.000
 RMSDP=1.62D-05 MaxDP=3.83D-04 DE= 1.74D-04 OVMax= 1.49D-03

 Cycle  35  Pass 1  IDiag  1:
 E= -158.559194592869     Delta-E=        0.001284212391 Rises=F Damp=F
 DIIS: error= 5.60D-02 at cycle  31 NSaved=  20.
 NSaved=20 IEnMin= 9 EnMin= -158.619950756889     IErMin= 2 ErrMin= 2.00D-02
 ErrMax= 5.60D-02  0.00D+00 EMaxC= 1.00D-01 BMatC= 1.40D-01 BMatP= 4.89D-02
 IDIUse=2 WtCom= 0.00D+00 WtEn= 1.00D+00
 EnCoef did   100 forward-backward iterations
 Coeff-En:   0.000D+00 0.000D+00 0.000D+00 0.332D-02 0.728D-03 0.000D+00
 Coeff-En:   0.000D+00 0.000D+00 0.437D+00 0.112D-02 0.168D+00 0.000D+00
 Coeff-En:   0.325D+00 0.227D-01 0.000D+00 0.000D+00 0.277D-04 0.000D+00
 Coeff-En:   0.391D-01 0.320D-02
 Coeff:      0.000D+00 0.000D+00 0.000D+00 0.332D-02 0.728D-03 0.000D+00
 Coeff:      0.000D+00 0.000D+00 0.437D+00 0.112D-02 0.168D+00 0.000D+00
 Coeff:      0.325D+00 0.227D-01 0.000D+00 0.000D+00 0.277D-04 0.000D+00
 Coeff:      0.391D-01 0.320D-02
 Gap=     0.001 Goal=   None    Shift=    0.000
 RMSDP=1.38D-05 MaxDP=3.27D-04 DE= 1.28D-03 OVMax= 1.28D-03

 Cycle  36  Pass 1  IDiag  1:
 E= -158.560156986135     Delta-E=       -0.000962393266 Rises=F Damp=F
 DIIS: error= 5.60D-02 at cycle  32 NSaved=  20.
 NSaved=20 IEnMin= 9 EnMin= -158.619950756889     IErMin= 2 ErrMin= 2.00D-02
 ErrMax= 5.60D-02  0.00D+00 EMaxC= 1.00D-01 BMatC= 1.40D-01 BMatP= 4.89D-02
 IDIUse=2 WtCom= 0.00D+00 WtEn= 1.00D+00
 EnCoef did   100 forward-backward iterations
 Coeff-En:   0.000D+00 0.000D+00 0.000D+00 0.319D-02 0.700D-03 0.000D+00
 Coeff-En:   0.000D+00 0.000D+00 0.437D+00 0.108D-02 0.168D+00 0.000D+00
 Coeff-En:   0.325D+00 0.243D-01 0.000D+00 0.000D+00 0.267D-04 0.000D+00
 Coeff-En:   0.308D-02 0.375D-01
 Coeff:      0.000D+00 0.000D+00 0.000D+00 0.319D-02 0.700D-03 0.000D+00
 Coeff:      0.000D+00 0.000D+00 0.437D+00 0.108D-02 0.168D+00 0.000D+00
 Coeff:      0.325D+00 0.243D-01 0.000D+00 0.000D+00 0.267D-04 0.000D+00
 Coeff:      0.308D-02 0.375D-01
 Gap=     0.001 Goal=   None    Shift=    0.000
 RMSDP=1.55D-05 MaxDP=3.67D-04 DE=-9.62D-04 OVMax= 1.35D-03

 Cycle  37  Pass 1  IDiag  1:
 E= -158.558993339524     Delta-E=        0.001163646611 Rises=F Damp=F
 DIIS: error= 5.60D-02 at cycle  33 NSaved=  20.
 NSaved=20 IEnMin= 9 EnMin= -158.619950756889     IErMin= 2 ErrMin= 2.00D-02
 ErrMax= 5.60D-02  0.00D+00 EMaxC= 1.00D-01 BMatC= 1.40D-01 BMatP= 4.89D-02
 IDIUse=2 WtCom= 0.00D+00 WtEn= 1.00D+00
 EnCoef did   100 forward-backward iterations
 Coeff-En:   0.000D+00 0.000D+00 0.000D+00 0.307D-02 0.674D-03 0.000D+00
 Coeff-En:   0.000D+00 0.000D+00 0.437D+00 0.104D-02 0.168D+00 0.000D+00
 Coeff-En:   0.325D+00 0.259D-01 0.000D+00 0.000D+00 0.257D-04 0.000D+00
 Coeff-En:   0.361D-01 0.296D-02
 Coeff:      0.000D+00 0.000D+00 0.000D+00 0.307D-02 0.674D-03 0.000D+00
 Coeff:      0.000D+00 0.000D+00 0.437D+00 0.104D-02 0.168D+00 0.000D+00
 Coeff:      0.325D+00 0.259D-01 0.000D+00 0.000D+00 0.257D-04 0.000D+00
 Coeff:      0.361D-01 0.296D-02
 Gap=     0.001 Goal=   None    Shift=    0.000
 RMSDP=1.85D-06 MaxDP=3.60D-05 DE= 1.16D-03 OVMax= 2.12D-04

 Cycle  38  Pass 1  IDiag  1:
 E= -158.558807020353     Delta-E=        0.000186319170 Rises=F Damp=F
 DIIS: error= 5.60D-02 at cycle  34 NSaved=  20.
 NSaved=20 IEnMin= 9 EnMin= -158.619950756889     IErMin= 2 ErrMin= 2.00D-02
 ErrMax= 5.60D-02  0.00D+00 EMaxC= 1.00D-01 BMatC= 1.40D-01 BMatP= 4.89D-02
 IDIUse=2 WtCom= 0.00D+00 WtEn= 1.00D+00
 EnCoef did   100 forward-backward iterations
 Coeff-En:   0.000D+00 0.000D+00 0.000D+00 0.296D-02 0.649D-03 0.000D+00
 Coeff-En:   0.000D+00 0.000D+00 0.437D+00 0.100D-02 0.168D+00 0.000D+00
 Coeff-En:   0.325D+00 0.272D-01 0.000D+00 0.000D+00 0.247D-04 0.000D+00
 Coeff-En:   0.285D-02 0.348D-01
 Coeff:      0.000D+00 0.000D+00 0.000D+00 0.296D-02 0.649D-03 0.000D+00
 Coeff:      0.000D+00 0.000D+00 0.437D+00 0.100D-02 0.168D+00 0.000D+00
 Coeff:      0.325D+00 0.272D-01 0.000D+00 0.000D+00 0.247D-04 0.000D+00
 Coeff:      0.285D-02 0.348D-01
 Gap=     0.001 Goal=   None    Shift=    0.000
 RMSDP=1.73D-06 MaxDP=2.80D-05 DE= 1.86D-04 OVMax= 1.71D-04

 Cycle  39  Pass 1  IDiag  1:
 E= -158.558694067912     Delta-E=        0.000112952441 Rises=F Damp=F
 DIIS: error= 5.61D-02 at cycle  35 NSaved=  20.
 NSaved=20 IEnMin= 9 EnMin= -158.619950756889     IErMin= 2 ErrMin= 2.00D-02
 ErrMax= 5.61D-02  0.00D+00 EMaxC= 1.00D-01 BMatC= 1.41D-01 BMatP= 4.89D-02
 IDIUse=2 WtCom= 0.00D+00 WtEn= 1.00D+00
 EnCoef did   100 forward-backward iterations
 Coeff-En:   0.000D+00 0.000D+00 0.000D+00 0.285D-02 0.627D-03 0.000D+00
 Coeff-En:   0.000D+00 0.000D+00 0.437D+00 0.966D-03 0.168D+00 0.000D+00
 Coeff-En:   0.326D+00 0.286D-01 0.000D+00 0.000D+00 0.239D-04 0.000D+00
 Coeff-En:   0.336D-01 0.276D-02
 Coeff:      0.000D+00 0.000D+00 0.000D+00 0.285D-02 0.627D-03 0.000D+00
 Coeff:      0.000D+00 0.000D+00 0.437D+00 0.966D-03 0.168D+00 0.000D+00
 Coeff:      0.326D+00 0.286D-01 0.000D+00 0.000D+00 0.239D-04 0.000D+00
 Coeff:      0.336D-01 0.276D-02
 Gap=     0.001 Goal=   None    Shift=    0.000
 RMSDP=1.79D-05 MaxDP=4.10D-04 DE= 1.13D-04 OVMax= 1.95D-03

 Cycle  40  Pass 1  IDiag  1:
 E= -158.559515059954     Delta-E=       -0.000820992042 Rises=F Damp=F
 DIIS: error= 5.60D-02 at cycle  36 NSaved=  20.
 NSaved=20 IEnMin= 9 EnMin= -158.619950756889     IErMin= 2 ErrMin= 2.00D-02
 ErrMax= 5.60D-02  0.00D+00 EMaxC= 1.00D-01 BMatC= 1.40D-01 BMatP= 4.89D-02
 IDIUse=2 WtCom= 0.00D+00 WtEn= 1.00D+00
 EnCoef did   100 forward-backward iterations
 Coeff-En:   0.000D+00 0.000D+00 0.000D+00 0.276D-02 0.607D-03 0.000D+00
 Coeff-En:   0.000D+00 0.000D+00 0.438D+00 0.935D-03 0.167D+00 0.000D+00
 Coeff-En:   0.326D+00 0.297D-01 0.000D+00 0.000D+00 0.231D-04 0.000D+00
 Coeff-En:   0.267D-02 0.326D-01
 Coeff:      0.000D+00 0.000D+00 0.000D+00 0.276D-02 0.607D-03 0.000D+00
 Coeff:      0.000D+00 0.000D+00 0.438D+00 0.935D-03 0.167D+00 0.000D+00
 Coeff:      0.326D+00 0.297D-01 0.000D+00 0.000D+00 0.231D-04 0.000D+00
 Coeff:      0.267D-02 0.326D-01
 Gap=     0.001 Goal=   None    Shift=    0.000
 RMSDP=2.06D-05 MaxDP=4.87D-04 DE=-8.21D-04 OVMax= 1.93D-03

 Cycle  41  Pass 1  IDiag  1:
 E= -158.557839345985     Delta-E=        0.001675713969 Rises=F Damp=F
 DIIS: error= 5.61D-02 at cycle  37 NSaved=  20.
 NSaved=20 IEnMin= 9 EnMin= -158.619950756889     IErMin= 2 ErrMin= 2.00D-02
 ErrMax= 5.61D-02  0.00D+00 EMaxC= 1.00D-01 BMatC= 1.41D-01 BMatP= 4.89D-02
 IDIUse=2 WtCom= 0.00D+00 WtEn= 1.00D+00
 EnCoef did   100 forward-backward iterations
 Coeff-En:   0.000D+00 0.000D+00 0.000D+00 0.268D-02 0.589D-03 0.000D+00
 Coeff-En:   0.000D+00 0.000D+00 0.438D+00 0.907D-03 0.167D+00 0.000D+00
 Coeff-En:   0.326D+00 0.309D-01 0.000D+00 0.000D+00 0.224D-04 0.000D+00
 Coeff-En:   0.316D-01 0.259D-02
 Coeff:      0.000D+00 0.000D+00 0.000D+00 0.268D-02 0.589D-03 0.000D+00
 Coeff:      0.000D+00 0.000D+00 0.438D+00 0.907D-03 0.167D+00 0.000D+00
 Coeff:      0.326D+00 0.309D-01 0.000D+00 0.000D+00 0.224D-04 0.000D+00
 Coeff:      0.316D-01 0.259D-02
 Gap=     0.001 Goal=   None    Shift=    0.000
 RMSDP=1.68D-05 MaxDP=3.88D-04 DE= 1.68D-03 OVMax= 1.73D-03

 Cycle  42  Pass 1  IDiag  1:
 E= -158.559377085714     Delta-E=       -0.001537739729 Rises=F Damp=F
 DIIS: error= 5.60D-02 at cycle  38 NSaved=  20.
 NSaved=20 IEnMin= 9 EnMin= -158.619950756889     IErMin= 2 ErrMin= 2.00D-02
 ErrMax= 5.60D-02  0.00D+00 EMaxC= 1.00D-01 BMatC= 1.40D-01 BMatP= 4.89D-02
 IDIUse=2 WtCom= 0.00D+00 WtEn= 1.00D+00
 EnCoef did   100 forward-backward iterations
 Coeff-En:   0.000D+00 0.000D+00 0.000D+00 0.260D-02 0.571D-03 0.000D+00
 Coeff-En:   0.000D+00 0.000D+00 0.438D+00 0.880D-03 0.167D+00 0.000D+00
 Coeff-En:   0.326D+00 0.319D-01 0.000D+00 0.000D+00 0.218D-04 0.000D+00
 Coeff-En:   0.251D-02 0.306D-01
 Coeff:      0.000D+00 0.000D+00 0.000D+00 0.260D-02 0.571D-03 0.000D+00
 Coeff:      0.000D+00 0.000D+00 0.438D+00 0.880D-03 0.167D+00 0.000D+00
 Coeff:      0.326D+00 0.319D-01 0.000D+00 0.000D+00 0.218D-04 0.000D+00
 Coeff:      0.251D-02 0.306D-01
 Gap=     0.001 Goal=   None    Shift=    0.000
 RMSDP=8.75D-05 MaxDP=1.68D-03 DE=-1.54D-03 OVMax= 1.06D-02

 Cycle  43  Pass 1  IDiag  1:
 E= -158.559206698455     Delta-E=        0.000170387259 Rises=F Damp=F
 DIIS: error= 5.61D-02 at cycle  39 NSaved=  20.
 NSaved=20 IEnMin= 9 EnMin= -158.619950756889     IErMin= 2 ErrMin= 2.00D-02
 ErrMax= 5.61D-02  0.00D+00 EMaxC= 1.00D-01 BMatC= 1.40D-01 BMatP= 4.89D-02
 IDIUse=2 WtCom= 0.00D+00 WtEn= 1.00D+00
 EnCoef did   100 forward-backward iterations
 Coeff-En:   0.000D+00 0.000D+00 0.000D+00 0.253D-02 0.555D-03 0.000D+00
 Coeff-En:   0.000D+00 0.000D+00 0.438D+00 0.855D-03 0.167D+00 0.000D+00
 Coeff-En:   0.326D+00 0.328D-01 0.000D+00 0.000D+00 0.211D-04 0.000D+00
 Coeff-En:   0.298D-01 0.244D-02
 Coeff:      0.000D+00 0.000D+00 0.000D+00 0.253D-02 0.555D-03 0.000D+00
 Coeff:      0.000D+00 0.000D+00 0.438D+00 0.855D-03 0.167D+00 0.000D+00
 Coeff:      0.326D+00 0.328D-01 0.000D+00 0.000D+00 0.211D-04 0.000D+00
 Coeff:      0.298D-01 0.244D-02
 Gap=     0.001 Goal=   None    Shift=    0.000
 RMSDP=7.82D-05 MaxDP=1.36D-03 DE= 1.70D-04 OVMax= 9.45D-03

 Cycle  44  Pass 1  IDiag  1:
 E= -158.557734007579     Delta-E=        0.001472690876 Rises=F Damp=F
 DIIS: error= 5.61D-02 at cycle  40 NSaved=  20.
 NSaved=20 IEnMin= 9 EnMin= -158.619950756889     IErMin= 2 ErrMin= 2.00D-02
 ErrMax= 5.61D-02  0.00D+00 EMaxC= 1.00D-01 BMatC= 1.41D-01 BMatP= 4.89D-02
 IDIUse=2 WtCom= 0.00D+00 WtEn= 1.00D+00
 EnCoef did   100 forward-backward iterations
 Coeff-En:   0.000D+00 0.000D+00 0.000D+00 0.246D-02 0.539D-03 0.000D+00
 Coeff-En:   0.000D+00 0.000D+00 0.438D+00 0.831D-03 0.167D+00 0.000D+00
 Coeff-En:   0.326D+00 0.337D-01 0.000D+00 0.000D+00 0.205D-04 0.000D+00
 Coeff-En:   0.237D-02 0.289D-01
 Coeff:      0.000D+00 0.000D+00 0.000D+00 0.246D-02 0.539D-03 0.000D+00
 Coeff:      0.000D+00 0.000D+00 0.438D+00 0.831D-03 0.167D+00 0.000D+00
 Coeff:      0.326D+00 0.337D-01 0.000D+00 0.000D+00 0.205D-04 0.000D+00
 Coeff:      0.237D-02 0.289D-01
 Gap=     0.001 Goal=   None    Shift=    0.000
 RMSDP=1.29D-06 MaxDP=2.07D-05 DE= 1.47D-03 OVMax= 1.38D-04

 Cycle  45  Pass 1  IDiag  1:
 E= -158.557662876591     Delta-E=        0.000071130988 Rises=F Damp=F
 DIIS: error= 5.61D-02 at cycle  41 NSaved=  20.
 NSaved=20 IEnMin= 9 EnMin= -158.619950756889     IErMin= 2 ErrMin= 2.00D-02
 ErrMax= 5.61D-02  0.00D+00 EMaxC= 1.00D-01 BMatC= 1.41D-01 BMatP= 4.89D-02
 IDIUse=2 WtCom= 0.00D+00 WtEn= 1.00D+00
 EnCoef did   100 forward-backward iterations
 Coeff-En:   0.000D+00 0.000D+00 0.000D+00 0.239D-02 0.525D-03 0.000D+00
 Coeff-En:   0.000D+00 0.000D+00 0.438D+00 0.808D-03 0.167D+00 0.000D+00
 Coeff-En:   0.326D+00 0.346D-01 0.000D+00 0.000D+00 0.200D-04 0.000D+00
 Coeff-En:   0.281D-01 0.231D-02
 Coeff:      0.000D+00 0.000D+00 0.000D+00 0.239D-02 0.525D-03 0.000D+00
 Coeff:      0.000D+00 0.000D+00 0.438D+00 0.808D-03 0.167D+00 0.000D+00
 Coeff:      0.326D+00 0.346D-01 0.000D+00 0.000D+00 0.200D-04 0.000D+00
 Coeff:      0.281D-01 0.231D-02
 Gap=     0.001 Goal=   None    Shift=    0.000
 RMSDP=1.05D-06 MaxDP=2.23D-05 DE= 7.11D-05 OVMax= 1.21D-04

 Cycle  46  Pass 1  IDiag  1:
 E= -158.557641322496     Delta-E=        0.000021554095 Rises=F Damp=F
 DIIS: error= 5.61D-02 at cycle  42 NSaved=  20.
 NSaved=20 IEnMin= 9 EnMin= -158.619950756889     IErMin= 2 ErrMin= 2.00D-02
 ErrMax= 5.61D-02  0.00D+00 EMaxC= 1.00D-01 BMatC= 1.41D-01 BMatP= 4.89D-02
 IDIUse=2 WtCom= 0.00D+00 WtEn= 1.00D+00
 EnCoef did   100 forward-backward iterations
 Coeff-En:   0.000D+00 0.000D+00 0.000D+00 0.232D-02 0.511D-03 0.000D+00
 Coeff-En:   0.000D+00 0.000D+00 0.438D+00 0.787D-03 0.167D+00 0.000D+00
 Coeff-En:   0.326D+00 0.354D-01 0.000D+00 0.000D+00 0.194D-04 0.000D+00
 Coeff-En:   0.224D-02 0.274D-01
 Coeff:      0.000D+00 0.000D+00 0.000D+00 0.232D-02 0.511D-03 0.000D+00
 Coeff:      0.000D+00 0.000D+00 0.438D+00 0.787D-03 0.167D+00 0.000D+00
 Coeff:      0.326D+00 0.354D-01 0.000D+00 0.000D+00 0.194D-04 0.000D+00
 Coeff:      0.224D-02 0.274D-01
 Gap=     0.001 Goal=   None    Shift=    0.000
 RMSDP=2.45D-06 MaxDP=4.16D-05 DE= 2.16D-05 OVMax= 2.29D-04

 Cycle  47  Pass 1  IDiag  1:
 E= -158.557456581511     Delta-E=        0.000184740985 Rises=F Damp=F
 DIIS: error= 5.61D-02 at cycle  43 NSaved=  20.
 NSaved=20 IEnMin= 9 EnMin= -158.619950756889     IErMin= 2 ErrMin= 2.00D-02
 ErrMax= 5.61D-02  0.00D+00 EMaxC= 1.00D-01 BMatC= 1.41D-01 BMatP= 4.89D-02
 IDIUse=2 WtCom= 0.00D+00 WtEn= 1.00D+00
 EnCoef did   100 forward-backward iterations
 Coeff-En:   0.000D+00 0.000D+00 0.000D+00 0.226D-02 0.497D-03 0.000D+00
 Coeff-En:   0.000D+00 0.000D+00 0.438D+00 0.766D-03 0.167D+00 0.000D+00
 Coeff-En:   0.326D+00 0.362D-01 0.000D+00 0.000D+00 0.189D-04 0.000D+00
 Coeff-En:   0.267D-01 0.218D-02
 Coeff:      0.000D+00 0.000D+00 0.000D+00 0.226D-02 0.497D-03 0.000D+00
 Coeff:      0.000D+00 0.000D+00 0.438D+00 0.766D-03 0.167D+00 0.000D+00
 Coeff:      0.326D+00 0.362D-01 0.000D+00 0.000D+00 0.189D-04 0.000D+00
 Coeff:      0.267D-01 0.218D-02
 Gap=     0.001 Goal=   None    Shift=    0.000
 RMSDP=1.10D-05 MaxDP=1.93D-04 DE= 1.85D-04 OVMax= 1.02D-03

 Cycle  48  Pass 1  IDiag  1:
 E= -158.558333691652     Delta-E=       -0.000877110141 Rises=F Damp=F
 DIIS: error= 5.61D-02 at cycle  44 NSaved=  20.
 NSaved=20 IEnMin= 9 EnMin= -158.619950756889     IErMin= 2 ErrMin= 2.00D-02
 ErrMax= 5.61D-02  0.00D+00 EMaxC= 1.00D-01 BMatC= 1.41D-01 BMatP= 4.89D-02
 IDIUse=2 WtCom= 0.00D+00 WtEn= 1.00D+00
 EnCoef did   100 forward-backward iterations
 Coeff-En:   0.000D+00 0.000D+00 0.000D+00 0.221D-02 0.485D-03 0.000D+00
 Coeff-En:   0.000D+00 0.000D+00 0.438D+00 0.747D-03 0.167D+00 0.000D+00
 Coeff-En:   0.327D+00 0.370D-01 0.000D+00 0.000D+00 0.185D-04 0.000D+00
 Coeff-En:   0.213D-02 0.260D-01
 Coeff:      0.000D+00 0.000D+00 0.000D+00 0.221D-02 0.485D-03 0.000D+00
 Coeff:      0.000D+00 0.000D+00 0.438D+00 0.747D-03 0.167D+00 0.000D+00
 Coeff:      0.327D+00 0.370D-01 0.000D+00 0.000D+00 0.185D-04 0.000D+00
 Coeff:      0.213D-02 0.260D-01
 Gap=     0.001 Goal=   None    Shift=    0.000
 RMSDP=7.62D-05 MaxDP=1.40D-03 DE=-8.77D-04 OVMax= 9.26D-03

 Cycle  49  Pass 1  IDiag  1:
 E= -158.558994294358     Delta-E=       -0.000660602706 Rises=F Damp=F
 DIIS: error= 5.61D-02 at cycle  45 NSaved=  20.
 NSaved=20 IEnMin= 9 EnMin= -158.619950756889     IErMin= 2 ErrMin= 2.00D-02
 ErrMax= 5.61D-02  0.00D+00 EMaxC= 1.00D-01 BMatC= 1.40D-01 BMatP= 4.89D-02
 IDIUse=2 WtCom= 0.00D+00 WtEn= 1.00D+00
 EnCoef did   100 forward-backward iterations
 Coeff-En:   0.000D+00 0.000D+00 0.000D+00 0.216D-02 0.473D-03 0.000D+00
 Coeff-En:   0.000D+00 0.000D+00 0.438D+00 0.730D-03 0.167D+00 0.000D+00
 Coeff-En:   0.327D+00 0.377D-01 0.000D+00 0.000D+00 0.180D-04 0.000D+00
 Coeff-En:   0.254D-01 0.208D-02
 Coeff:      0.000D+00 0.000D+00 0.000D+00 0.216D-02 0.473D-03 0.000D+00
 Coeff:      0.000D+00 0.000D+00 0.438D+00 0.730D-03 0.167D+00 0.000D+00
 Coeff:      0.327D+00 0.377D-01 0.000D+00 0.000D+00 0.180D-04 0.000D+00
 Coeff:      0.254D-01 0.208D-02
 Gap=     0.001 Goal=   None    Shift=    0.000
 RMSDP=2.41D-06 MaxDP=3.95D-05 DE=-6.61D-04 OVMax= 2.88D-04

 Cycle  50  Pass 1  IDiag  1:
 E= -158.558934314720     Delta-E=        0.000059979638 Rises=F Damp=F
 DIIS: error= 5.61D-02 at cycle  46 NSaved=  20.
 NSaved=20 IEnMin= 9 EnMin= -158.619950756889     IErMin= 2 ErrMin= 2.00D-02
 ErrMax= 5.61D-02  0.00D+00 EMaxC= 1.00D-01 BMatC= 1.40D-01 BMatP= 4.89D-02
 IDIUse=2 WtCom= 0.00D+00 WtEn= 1.00D+00
 EnCoef did   100 forward-backward iterations
 Coeff-En:   0.000D+00 0.000D+00 0.000D+00 0.211D-02 0.463D-03 0.000D+00
 Coeff-En:   0.000D+00 0.000D+00 0.438D+00 0.713D-03 0.166D+00 0.000D+00
 Coeff-En:   0.327D+00 0.384D-01 0.000D+00 0.000D+00 0.176D-04 0.000D+00
 Coeff-En:   0.203D-02 0.248D-01
 Coeff:      0.000D+00 0.000D+00 0.000D+00 0.211D-02 0.463D-03 0.000D+00
 Coeff:      0.000D+00 0.000D+00 0.438D+00 0.713D-03 0.166D+00 0.000D+00
 Coeff:      0.327D+00 0.384D-01 0.000D+00 0.000D+00 0.176D-04 0.000D+00
 Coeff:      0.203D-02 0.248D-01
 Gap=     0.001 Goal=   None    Shift=    0.000
 RMSDP=2.48D-05 MaxDP=5.55D-04 DE= 6.00D-05 OVMax= 2.74D-03

 Cycle  51  Pass 1  IDiag  1:
 E= -158.559967268720     Delta-E=       -0.001032954000 Rises=F Damp=F
 DIIS: error= 5.60D-02 at cycle  47 NSaved=  20.
 NSaved=20 IEnMin= 9 EnMin= -158.619950756889     IErMin= 2 ErrMin= 2.00D-02
 ErrMax= 5.60D-02  0.00D+00 EMaxC= 1.00D-01 BMatC= 1.40D-01 BMatP= 4.89D-02
 IDIUse=2 WtCom= 0.00D+00 WtEn= 1.00D+00
 EnCoef did   100 forward-backward iterations
 Coeff-En:   0.000D+00 0.000D+00 0.000D+00 0.206D-02 0.453D-03 0.000D+00
 Coeff-En:   0.000D+00 0.000D+00 0.438D+00 0.697D-03 0.166D+00 0.000D+00
 Coeff-En:   0.327D+00 0.390D-01 0.000D+00 0.000D+00 0.172D-04 0.000D+00
 Coeff-En:   0.243D-01 0.199D-02
 Coeff:      0.000D+00 0.000D+00 0.000D+00 0.206D-02 0.453D-03 0.000D+00
 Coeff:      0.000D+00 0.000D+00 0.438D+00 0.697D-03 0.166D+00 0.000D+00
 Coeff:      0.327D+00 0.390D-01 0.000D+00 0.000D+00 0.172D-04 0.000D+00
 Coeff:      0.243D-01 0.199D-02
 Gap=     0.001 Goal=   None    Shift=    0.000
 RMSDP=1.03D-06 MaxDP=1.73D-05 DE=-1.03D-03 OVMax= 1.02D-04

 Cycle  52  Pass 1  IDiag  1:
 E= -158.559898405708     Delta-E=        0.000068863012 Rises=F Damp=F
 DIIS: error= 5.60D-02 at cycle  48 NSaved=  20.
 NSaved=20 IEnMin= 9 EnMin= -158.619950756889     IErMin= 2 ErrMin= 2.00D-02
 ErrMax= 5.60D-02  0.00D+00 EMaxC= 1.00D-01 BMatC= 1.40D-01 BMatP= 4.89D-02
 IDIUse=2 WtCom= 0.00D+00 WtEn= 1.00D+00
 EnCoef did   100 forward-backward iterations
 Coeff-En:   0.000D+00 0.000D+00 0.000D+00 0.202D-02 0.443D-03 0.000D+00
 Coeff-En:   0.000D+00 0.000D+00 0.438D+00 0.683D-03 0.166D+00 0.000D+00
 Coeff-En:   0.327D+00 0.396D-01 0.000D+00 0.000D+00 0.169D-04 0.000D+00
 Coeff-En:   0.195D-02 0.238D-01
 Coeff:      0.000D+00 0.000D+00 0.000D+00 0.202D-02 0.443D-03 0.000D+00
 Coeff:      0.000D+00 0.000D+00 0.438D+00 0.683D-03 0.166D+00 0.000D+00
 Coeff:      0.327D+00 0.396D-01 0.000D+00 0.000D+00 0.169D-04 0.000D+00
 Coeff:      0.195D-02 0.238D-01
 Gap=     0.001 Goal=   None    Shift=    0.000
 RMSDP=1.11D-06 MaxDP=2.49D-05 DE= 6.89D-05 OVMax= 1.21D-04

 Cycle  53  Pass 1  IDiag  1:
 E= -158.559856091915     Delta-E=        0.000042313793 Rises=F Damp=F
 DIIS: error= 5.60D-02 at cycle  49 NSaved=  20.
 NSaved=20 IEnMin= 9 EnMin= -158.619950756889     IErMin= 2 ErrMin= 2.00D-02
 ErrMax= 5.60D-02  0.00D+00 EMaxC= 1.00D-01 BMatC= 1.40D-01 BMatP= 4.89D-02
 IDIUse=2 WtCom= 0.00D+00 WtEn= 1.00D+00
 EnCoef did   100 forward-backward iterations
 Coeff-En:   0.000D+00 0.000D+00 0.000D+00 0.197D-02 0.434D-03 0.000D+00
 Coeff-En:   0.000D+00 0.000D+00 0.438D+00 0.668D-03 0.166D+00 0.000D+00
 Coeff-En:   0.327D+00 0.401D-01 0.000D+00 0.000D+00 0.165D-04 0.000D+00
 Coeff-En:   0.233D-01 0.191D-02
 Coeff:      0.000D+00 0.000D+00 0.000D+00 0.197D-02 0.434D-03 0.000D+00
 Coeff:      0.000D+00 0.000D+00 0.438D+00 0.668D-03 0.166D+00 0.000D+00
 Coeff:      0.327D+00 0.401D-01 0.000D+00 0.000D+00 0.165D-04 0.000D+00
 Coeff:      0.233D-01 0.191D-02
 Gap=     0.001 Goal=   None    Shift=    0.000
 RMSDP=1.12D-06 MaxDP=1.86D-05 DE= 4.23D-05 OVMax= 1.17D-04

 Cycle  54  Pass 1  IDiag  1:
 E= -158.559790560947     Delta-E=        0.000065530968 Rises=F Damp=F
 DIIS: error= 5.60D-02 at cycle  50 NSaved=  20.
 NSaved=20 IEnMin= 9 EnMin= -158.619950756889     IErMin= 2 ErrMin= 2.00D-02
 ErrMax= 5.60D-02  0.00D+00 EMaxC= 1.00D-01 BMatC= 1.40D-01 BMatP= 4.89D-02
 IDIUse=2 WtCom= 0.00D+00 WtEn= 1.00D+00
 EnCoef did   100 forward-backward iterations
 Coeff-En:   0.000D+00 0.000D+00 0.000D+00 0.193D-02 0.425D-03 0.000D+00
 Coeff-En:   0.000D+00 0.000D+00 0.438D+00 0.654D-03 0.166D+00 0.000D+00
 Coeff-En:   0.327D+00 0.407D-01 0.000D+00 0.000D+00 0.162D-04 0.000D+00
 Coeff-En:   0.187D-02 0.228D-01
 Coeff:      0.000D+00 0.000D+00 0.000D+00 0.193D-02 0.425D-03 0.000D+00
 Coeff:      0.000D+00 0.000D+00 0.438D+00 0.654D-03 0.166D+00 0.000D+00
 Coeff:      0.327D+00 0.407D-01 0.000D+00 0.000D+00 0.162D-04 0.000D+00
 Coeff:      0.187D-02 0.228D-01
 Gap=     0.001 Goal=   None    Shift=    0.000
 RMSDP=1.07D-06 MaxDP=1.78D-05 DE= 6.55D-05 OVMax= 1.12D-04

 Cycle  55  Pass 1  IDiag  1:
 E= -158.559727506659     Delta-E=        0.000063054288 Rises=F Damp=F
 DIIS: error= 5.60D-02 at cycle  51 NSaved=  20.
 NSaved=20 IEnMin= 9 EnMin= -158.619950756889     IErMin= 2 ErrMin= 2.00D-02
 ErrMax= 5.60D-02  0.00D+00 EMaxC= 1.00D-01 BMatC= 1.40D-01 BMatP= 4.89D-02
 IDIUse=2 WtCom= 0.00D+00 WtEn= 1.00D+00
 EnCoef did   100 forward-backward iterations
 Coeff-En:   0.000D+00 0.000D+00 0.000D+00 0.190D-02 0.416D-03 0.000D+00
 Coeff-En:   0.000D+00 0.000D+00 0.438D+00 0.641D-03 0.166D+00 0.000D+00
 Coeff-En:   0.327D+00 0.412D-01 0.000D+00 0.000D+00 0.159D-04 0.000D+00
 Coeff-En:   0.223D-01 0.183D-02
 Coeff:      0.000D+00 0.000D+00 0.000D+00 0.190D-02 0.416D-03 0.000D+00
 Coeff:      0.000D+00 0.000D+00 0.438D+00 0.641D-03 0.166D+00 0.000D+00
 Coeff:      0.327D+00 0.412D-01 0.000D+00 0.000D+00 0.159D-04 0.000D+00
 Coeff:      0.223D-01 0.183D-02
 Gap=     0.001 Goal=   None    Shift=    0.000
 RMSDP=1.01D-06 MaxDP=1.69D-05 DE= 6.31D-05 OVMax= 1.06D-04

 Cycle  56  Pass 1  IDiag  1:
 E= -158.559667389290     Delta-E=        0.000060117370 Rises=F Damp=F
 DIIS: error= 5.60D-02 at cycle  52 NSaved=  20.
 NSaved=20 IEnMin= 9 EnMin= -158.619950756889     IErMin= 2 ErrMin= 2.00D-02
 ErrMax= 5.60D-02  0.00D+00 EMaxC= 1.00D-01 BMatC= 1.40D-01 BMatP= 4.89D-02
 IDIUse=2 WtCom= 0.00D+00 WtEn= 1.00D+00
 EnCoef did   100 forward-backward iterations
 Coeff-En:   0.000D+00 0.000D+00 0.000D+00 0.186D-02 0.408D-03 0.000D+00
 Coeff-En:   0.000D+00 0.000D+00 0.439D+00 0.629D-03 0.166D+00 0.000D+00
 Coeff-En:   0.327D+00 0.416D-01 0.000D+00 0.000D+00 0.155D-04 0.000D+00
 Coeff-En:   0.179D-02 0.219D-01
 Coeff:      0.000D+00 0.000D+00 0.000D+00 0.186D-02 0.408D-03 0.000D+00
 Coeff:      0.000D+00 0.000D+00 0.439D+00 0.629D-03 0.166D+00 0.000D+00
 Coeff:      0.327D+00 0.416D-01 0.000D+00 0.000D+00 0.155D-04 0.000D+00
 Coeff:      0.179D-02 0.219D-01
 Gap=     0.001 Goal=   None    Shift=    0.000
 RMSDP=1.53D-05 MaxDP=3.58D-04 DE= 6.01D-05 OVMax= 1.38D-03

 Cycle  57  Pass 1  IDiag  1:
 E= -158.558593121086     Delta-E=        0.001074268204 Rises=F Damp=F
 DIIS: error= 5.61D-02 at cycle  53 NSaved=  20.
 NSaved=20 IEnMin= 9 EnMin= -158.619950756889     IErMin= 2 ErrMin= 2.00D-02
 ErrMax= 5.61D-02  0.00D+00 EMaxC= 1.00D-01 BMatC= 1.40D-01 BMatP= 4.89D-02
 IDIUse=2 WtCom= 0.00D+00 WtEn= 1.00D+00
 EnCoef did   100 forward-backward iterations
 Coeff-En:   0.000D+00 0.000D+00 0.000D+00 0.182D-02 0.400D-03 0.000D+00
 Coeff-En:   0.000D+00 0.000D+00 0.439D+00 0.616D-03 0.166D+00 0.000D+00
 Coeff-En:   0.327D+00 0.421D-01 0.000D+00 0.000D+00 0.152D-04 0.000D+00
 Coeff-En:   0.215D-01 0.176D-02
 Coeff:      0.000D+00 0.000D+00 0.000D+00 0.182D-02 0.400D-03 0.000D+00
 Coeff:      0.000D+00 0.000D+00 0.439D+00 0.616D-03 0.166D+00 0.000D+00
 Coeff:      0.327D+00 0.421D-01 0.000D+00 0.000D+00 0.152D-04 0.000D+00
 Coeff:      0.215D-01 0.176D-02
 Gap=     0.001 Goal=   None    Shift=    0.000
 RMSDP=1.59D-05 MaxDP=3.70D-04 DE= 1.07D-03 OVMax= 1.57D-03

 Cycle  58  Pass 1  IDiag  1:
 E= -158.559554872750     Delta-E=       -0.000961751664 Rises=F Damp=F
 DIIS: error= 5.60D-02 at cycle  54 NSaved=  20.
 NSaved=20 IEnMin= 9 EnMin= -158.619950756889     IErMin= 2 ErrMin= 2.00D-02
 ErrMax= 5.60D-02  0.00D+00 EMaxC= 1.00D-01 BMatC= 1.40D-01 BMatP= 4.89D-02
 IDIUse=2 WtCom= 0.00D+00 WtEn= 1.00D+00
 EnCoef did     5 forward-backward iterations
 Coeff-En:   0.000D+00 0.000D+00 0.000D+00 0.182D-02 0.400D-03 0.000D+00
 Coeff-En:   0.000D+00 0.000D+00 0.439D+00 0.616D-03 0.166D+00 0.000D+00
 Coeff-En:   0.327D+00 0.421D-01 0.000D+00 0.000D+00 0.152D-04 0.000D+00
 Coeff-En:   0.176D-02 0.214D-01
 Coeff:      0.000D+00 0.000D+00 0.000D+00 0.182D-02 0.400D-03 0.000D+00
 Coeff:      0.000D+00 0.000D+00 0.439D+00 0.616D-03 0.166D+00 0.000D+00
 Coeff:      0.327D+00 0.421D-01 0.000D+00 0.000D+00 0.152D-04 0.000D+00
 Coeff:      0.176D-02 0.214D-01
 Gap=     0.001 Goal=   None    Shift=    0.000
 RMSDP=9.44D-05 MaxDP=1.45D-03 DE=-9.62D-04 OVMax= 1.11D-02

 Cycle  59  Pass 1  IDiag  1:
 E= -158.556630475703     Delta-E=        0.002924397047 Rises=F Damp=F
 DIIS: error= 5.62D-02 at cycle  55 NSaved=  20.
 NSaved=20 IEnMin= 8 EnMin= -158.619950756889     IErMin= 8 ErrMin= 3.09D-02
 ErrMax= 5.62D-02  0.00D+00 EMaxC= 1.00D-01 BMatC= 1.41D-01 BMatP= 8.79D-02
 IDIUse=2 WtCom= 0.00D+00 WtEn= 1.00D+00
 Rare condition: small coef for last iteration:  0.000D+00
 Coeff-En:   0.000D+00 0.000D+00 0.368D-01 0.113D+00 0.000D+00 0.000D+00
 Coeff-En:   0.000D+00 0.361D+00 0.114D-01 0.150D+00 0.000D+00 0.902D-01
 Coeff-En:   0.918D-02 0.124D-02 0.000D+00 0.734D-01 0.000D+00 0.000D+00
 Coeff-En:   0.000D+00 0.154D+00
 Coeff:      0.000D+00 0.000D+00 0.368D-01 0.113D+00 0.000D+00 0.000D+00
 Coeff:      0.000D+00 0.361D+00 0.114D-01 0.150D+00 0.000D+00 0.902D-01
 Coeff:      0.918D-02 0.124D-02 0.000D+00 0.734D-01 0.000D+00 0.000D+00
 Coeff:      0.000D+00 0.154D+00
 Gap=    -0.016 Goal=   None    Shift=    0.000
 RMSDP=7.92D-03 MaxDP=2.63D-01 DE= 2.92D-03 OVMax= 7.70D-01

 Cycle  60  Pass 1  IDiag  1:
 E= -158.152169540990     Delta-E=        0.404460934713 Rises=F Damp=F
 DIIS: error= 4.03D-02 at cycle  56 NSaved=  20.
 NSaved=20 IEnMin= 8 EnMin= -158.619950756889     IErMin= 8 ErrMin= 3.09D-02
 ErrMax= 4.03D-02  0.00D+00 EMaxC= 1.00D-01 BMatC= 2.03D-01 BMatP= 8.79D-02
 IDIUse=2 WtCom= 0.00D+00 WtEn= 1.00D+00
 EnCoef did   100 forward-backward iterations
 Rare condition: small coef for last iteration: -0.257D-15
 Coeff-En:   0.000D+00 0.000D+00 0.368D-01 0.113D+00 0.000D+00 0.000D+00
 Coeff-En:   0.000D+00 0.361D+00 0.114D-01 0.150D+00 0.000D+00 0.902D-01
 Coeff-En:   0.917D-02 0.124D-02 0.000D+00 0.179D-02 0.000D+00 0.368D-02
 Coeff-En:   0.150D+00 0.716D-01
 Coeff:      0.000D+00 0.000D+00 0.368D-01 0.113D+00 0.000D+00 0.000D+00
 Coeff:      0.000D+00 0.361D+00 0.114D-01 0.150D+00 0.000D+00 0.902D-01
 Coeff:      0.917D-02 0.124D-02 0.000D+00 0.179D-02 0.000D+00 0.368D-02
 Coeff:      0.150D+00 0.716D-01
 Gap=     0.018 Goal=   None    Shift=    0.000
 RMSDP=3.72D-07 MaxDP=1.04D-05 DE= 4.04D-01 OVMax= 1.36D-05

 Cycle  61  Pass 1  IDiag  1:
 E= -158.152188823512     Delta-E=       -0.000019282522 Rises=F Damp=F
 DIIS: error= 4.03D-02 at cycle  57 NSaved=  20.
 NSaved=20 IEnMin= 8 EnMin= -158.619950756889     IErMin= 8 ErrMin= 3.09D-02
 ErrMax= 4.03D-02  0.00D+00 EMaxC= 1.00D-01 BMatC= 2.03D-01 BMatP= 8.79D-02
 IDIUse=2 WtCom= 0.00D+00 WtEn= 1.00D+00
 EnCoef did   100 forward-backward iterations
 Coeff-En:   0.000D+00 0.000D+00 0.515D-02 0.978D-03 0.000D+00 0.000D+00
 Coeff-En:   0.000D+00 0.435D+00 0.149D-02 0.170D+00 0.000D+00 0.322D+00
 Coeff-En:   0.382D-02 0.000D+00 0.000D+00 0.500D-04 0.109D-02 0.595D-01
 Coeff-En:   0.000D+00 0.451D-03
 Coeff:      0.000D+00 0.000D+00 0.515D-02 0.978D-03 0.000D+00 0.000D+00
 Coeff:      0.000D+00 0.435D+00 0.149D-02 0.170D+00 0.000D+00 0.322D+00
 Coeff:      0.382D-02 0.000D+00 0.000D+00 0.500D-04 0.109D-02 0.595D-01
 Coeff:      0.000D+00 0.451D-03
 Gap=     0.003 Goal=   None    Shift=    0.000
 RMSDP=7.91D-03 MaxDP=2.62D-01 DE=-1.93D-05 OVMax= 7.49D-01

 Cycle  62  Pass 1  IDiag  1:
 E= -158.561792376838     Delta-E=       -0.409603553326 Rises=F Damp=F
 DIIS: error= 5.58D-02 at cycle  58 NSaved=  20.
 NSaved=20 IEnMin= 8 EnMin= -158.619950756889     IErMin= 8 ErrMin= 3.09D-02
 ErrMax= 5.58D-02  0.00D+00 EMaxC= 1.00D-01 BMatC= 1.40D-01 BMatP= 8.79D-02
 IDIUse=2 WtCom= 0.00D+00 WtEn= 1.00D+00
 EnCoef did   100 forward-backward iterations
 Rare condition: small coef for last iteration:  0.167D-14
 Coeff-En:   0.000D+00 0.000D+00 0.367D-01 0.113D+00 0.000D+00 0.000D+00
 Coeff-En:   0.000D+00 0.361D+00 0.115D-01 0.149D+00 0.000D+00 0.891D-01
 Coeff-En:   0.866D-02 0.000D+00 0.000D+00 0.969D-03 0.000D+00 0.195D-02
 Coeff-En:   0.726D-01 0.155D+00
 Coeff:      0.000D+00 0.000D+00 0.367D-01 0.113D+00 0.000D+00 0.000D+00
 Coeff:      0.000D+00 0.361D+00 0.115D-01 0.149D+00 0.000D+00 0.891D-01
 Coeff:      0.866D-02 0.000D+00 0.000D+00 0.969D-03 0.000D+00 0.195D-02
 Coeff:      0.726D-01 0.155D+00
 Gap=    -0.016 Goal=   None    Shift=    0.000
 RMSDP=7.91D-03 MaxDP=2.62D-01 DE=-4.10D-01 OVMax= 7.66D-01

 Cycle  63  Pass 1  IDiag  1:
[...]
  90        3S         -0.01741   0.12469  -0.00808  -0.00740   0.00058
  91        4PX         0.72406   0.14723  -0.00817  -0.72330   0.05996
  92        4PY        -0.02119   0.04209   0.76219  -0.00146   0.04254
  93        4PZ        -0.25019  -0.08517  -0.04617   0.25725  -0.02416
  94        5PX         0.59376   0.11321  -0.00623  -0.62327   0.05168
  95        5PY        -0.01693   0.03304   0.62307  -0.00132   0.03661
  96        5PZ        -0.19914  -0.08986  -0.03653   0.22060  -0.02073
  97        6D 0        0.21937   0.03690   0.08082  -0.22634   0.02344
  98        6D+1       -0.19552  -0.05472  -0.02943   0.20872  -0.01910
  99        6D-1       -0.02589  -0.05227  -0.70100   0.04723  -0.04363
 100        6D+2       -0.79448  -0.17061   0.06287   0.79841  -0.06319
 101        6D-2       -0.00983   0.02624   0.45620  -0.00304   0.02542
 102 14  H  1S          0.84661   0.14324  -0.01025  -0.85244   0.07054
 103        2S          0.46331   0.06488  -0.00479  -0.47629   0.03941
 104        3PX         0.82001   0.12761  -0.00921  -0.81548   0.06747
 105        3PY        -0.00098   0.00057   0.00118   0.00122  -0.00064
 106        3PZ         0.02148   0.01284  -0.00090  -0.02198   0.00185
 107 15  H  1S         -0.41888  -0.08456   0.73539   0.41091   0.00704
 108        2S         -0.22501  -0.05906   0.40088   0.22951   0.00394
 109        3PX         0.12921   0.03423  -0.22728  -0.11867  -0.00307
 110        3PY        -0.33868  -0.07996   0.59962   0.33651   0.00510
 111        3PZ        -0.17844  -0.03275   0.30928   0.16861   0.00323
 112 16  H  1S         -0.41506  -0.17627  -0.71738   0.45157  -0.07838
 113        2S         -0.22293  -0.10897  -0.38944   0.25217  -0.04378
 114        3PX         0.12992   0.06338   0.22396  -0.13344   0.02410
 115        3PY         0.30776   0.14321   0.53592  -0.33983   0.05833
 116        3PZ        -0.22062  -0.09162  -0.37818   0.23384  -0.04080
                         116
                           V
     Eigenvalues --     2.35002
   1 1   C  1S         -0.00000
   2        2S          0.00005
   3        3S          0.00004
   4        4PX        -0.00028
   5        4PY        -0.29671
   6        4PZ        -0.00419
   7        5PX        -0.00023
   8        5PY        -0.25527
   9        5PZ        -0.00361
  10        6D 0       -0.04879
  11        6D+1       -0.00226
  12        6D-1        0.25155
  13        6D+2       -0.02860
  14        6D-2       -0.20733
  15 2   H  1S          0.02720
  16        2S          0.01521
  17        3PX        -0.00911
  18        3PY         0.00239
  19        3PZ        -0.02463
  20 3   H  1S          0.27179
  21        2S          0.15179
  22        3PX        -0.09377
  23        3PY        -0.20056
  24        3PZ         0.13699
  25 4   H  1S         -0.29908
  26        2S         -0.16702
  27        3PX         0.10246
  28        3PY        -0.23985
  29        3PZ        -0.11855
  30 5   C  1S          0.00009
  31        2S         -0.00210
  32        3S         -0.00298
  33        4PX        -0.22512
  34        4PY        -0.27554
  35        4PZ        -0.56100
  36        5PX        -0.19396
  37        5PY        -0.23765
  38        5PZ        -0.48299
  39        6D 0       -0.62362
  40        6D+1       -0.32901
  41        6D-1        0.15889
  42        6D+2       -0.05836
  43        6D-2       -0.15053
  44 6   H  1S          0.73378
  45        2S          0.41003
  46        3PX        -0.22082
  47        3PY        -0.02953
  48        3PZ        -0.66691
  49 7   H  1S         -0.27102
  50        2S         -0.15139
  51        3PX        -0.25931
  52        3PY         0.00040
  53        3PZ         0.00834
  54 8   H  1S         -0.45878
  55        2S         -0.25645
  56        3PX         0.14792
  57        3PY        -0.37710
  58        3PZ        -0.16926
  59 9   C  1S         -0.00008
  60        2S          0.00167
  61        3S          0.00246
  62        4PX         0.25021
  63        4PY        -0.19615
  64        4PZ         0.60960
  65        5PX         0.21546
  66        5PY        -0.16918
  67        5PZ         0.52491
  68        6D 0        0.59310
  69        6D+1        0.35982
  70        6D-1        0.30957
  71        6D+2        0.01180
  72        6D-2       -0.10181
  73 10  H  1S         -0.76180
  74        2S         -0.42568
  75        3PX         0.23106
  76        3PY         0.06329
  77        3PZ         0.68950
  78 11  H  1S          0.29923
  79        2S          0.16715
  80        3PX         0.28642
  81        3PY        -0.00150
  82        3PZ        -0.00942
  83 12  H  1S          0.45937
  84        2S          0.25671
  85        3PX        -0.14814
  86        3PY        -0.35098
  87        3PZ         0.21940
  88 13  C  1S          0.00001
  89        2S         -0.00037
  90        3S         -0.00051
  91        4PX        -0.02064
  92        4PY         0.77754
  93        4PZ        -0.04465
  94        5PX        -0.01781
  95        5PY         0.66940
  96        5PZ        -0.03852
  97        6D 0        0.07915
  98        6D+1       -0.02686
  99        6D-1       -0.72684
 100        6D+2        0.07785
 101        6D-2        0.46108
 102 14  H  1S         -0.02695
 103        2S         -0.01503
 104        3PX        -0.02575
 105        3PY        -0.01106
 106        3PZ         0.00008
 107 15  H  1S          0.76533
 108        2S          0.42759
 109        3PX        -0.23913
 110        3PY         0.61480
 111        3PZ         0.31978
 112 16  H  1S         -0.73769
 113        2S         -0.41220
 114        3PX         0.23446
 115        3PY         0.54356
 116        3PZ        -0.38568
          Condensed to atoms (all electrons):
               1          2          3          4          5          6
     1  C    5.000497   0.393338   0.391668   0.391671   0.000087   0.000033
     2  H    0.393338   0.611649  -0.032667  -0.032666   0.000022  -0.000001
     3  H    0.391668  -0.032667   0.613355  -0.032218   0.000004  -0.000000
     4  H    0.391671  -0.032666  -0.032218   0.613352   0.000033  -0.000002
     5  C    0.000087   0.000022   0.000004   0.000033   5.000615   0.391667
     6  H    0.000033  -0.000001  -0.000000  -0.000002   0.391667   0.613339
     7  H    0.000004  -0.000000  -0.000000  -0.000000   0.391611  -0.032241
     8  H    0.000022  -0.000001  -0.000000  -0.000001   0.393341  -0.032647
     9  C    0.000086   0.000022   0.000033   0.000004   0.002785  -0.000087
    10  H    0.000033  -0.000001  -0.000002  -0.000000  -0.000087   0.000010
    11  H    0.000004  -0.000000  -0.000000  -0.000000  -0.000088   0.000003
    12  H    0.000022  -0.000001  -0.000001  -0.000000  -0.000011   0.000000
    13  C    0.002765  -0.000011  -0.000086  -0.000086   0.000098   0.000004
    14  H   -0.000011   0.000000   0.000000   0.000000   0.000022  -0.000000
    15  H   -0.000086   0.000000   0.000003   0.000010   0.000033  -0.000000
    16  H   -0.000086   0.000000   0.000010   0.000003   0.000004  -0.000000
               7          8          9         10         11         12
     1  C    0.000004   0.000022   0.000086   0.000033   0.000004   0.000022
     2  H   -0.000000  -0.000001   0.000022  -0.000001  -0.000000  -0.000001
     3  H   -0.000000  -0.000000   0.000033  -0.000002  -0.000000  -0.000001
     4  H   -0.000000  -0.000001   0.000004  -0.000000  -0.000000  -0.000000
     5  C    0.391611   0.393341   0.002785  -0.000087  -0.000088  -0.000011
     6  H   -0.032241  -0.032647  -0.000087   0.000010   0.000003   0.000000
     7  H    0.613489  -0.032693  -0.000087   0.000003   0.000010   0.000000
     8  H   -0.032693   0.611625  -0.000011   0.000000   0.000000   0.000000
     9  C   -0.000087  -0.000011   5.000589   0.391668   0.391622   0.393350
    10  H    0.000003   0.000000   0.391668   0.613349  -0.032246  -0.032649
    11  H    0.000010   0.000000   0.391622  -0.032246   0.613479  -0.032689
    12  H    0.000000   0.000000   0.393350  -0.032649  -0.032689   0.611616
    13  C    0.000033   0.000022   0.000098   0.000004   0.000033   0.000022
    14  H   -0.000001  -0.000001   0.000022  -0.000000  -0.000001  -0.000001
    15  H   -0.000002  -0.000001   0.000004  -0.000000  -0.000000  -0.000000
    16  H   -0.000000  -0.000000   0.000033  -0.000000  -0.000002  -0.000001
              13         14         15         16
     1  C    0.002765  -0.000011  -0.000086  -0.000086
     2  H   -0.000011   0.000000   0.000000   0.000000
     3  H   -0.000086   0.000000   0.000003   0.000010
     4  H   -0.000086   0.000000   0.000010   0.000003
     5  C    0.000098   0.000022   0.000033   0.000004
     6  H    0.000004  -0.000000  -0.000000  -0.000000
     7  H    0.000033  -0.000001  -0.000002  -0.000000
     8  H    0.000022  -0.000001  -0.000001  -0.000000
     9  C    0.000098   0.000022   0.000004   0.000033
    10  H    0.000004  -0.000000  -0.000000  -0.000000
    11  H    0.000033  -0.000001  -0.000000  -0.000002
    12  H    0.000022  -0.000001  -0.000000  -0.000001
    13  C    5.000690   0.393271   0.391663   0.391669
    14  H    0.393271   0.611789  -0.032688  -0.032688
    15  H    0.391663  -0.032688   0.613360  -0.032202
    16  H    0.391669  -0.032688  -0.032202   0.613349
 Mulliken charges:
               1
     1  C   -0.180045
     2  H    0.060317
     3  H    0.059901
     4  H    0.059901
     5  C   -0.180136
     6  H    0.059922
     7  H    0.059873
     8  H    0.060344
     9  C   -0.180131
    10  H    0.059918
    11  H    0.059874
    12  H    0.060344
    13  C   -0.180187
    14  H    0.060286
    15  H    0.059906
    16  H    0.059911
 Sum of Mulliken charges =  -0.00000
 Mulliken charges with hydrogens summed into heavy atoms:
               1
     1  C    0.000075
     5  C    0.000004
     9  C    0.000006
    13  C   -0.000084
 Electronic spatial extent (au):  <R**2>=           2693.9336
 Charge=             -0.0000 electrons
 Dipole moment (field-independent basis, Debye):
    X=             -0.0060    Y=              0.0001    Z=              0.0013  Tot=              0.0062
 Quadrupole moment (field-independent basis, Debye-Ang):
   XX=            -25.2481   YY=            -25.1704   ZZ=            -25.2842
   XY=              0.0049   XZ=              0.0815   YZ=             -0.0081
 Traceless Quadrupole moment (field-independent basis, Debye-Ang):
   XX=             -0.0138   YY=              0.0638   ZZ=             -0.0500
   XY=              0.0049   XZ=              0.0815   YZ=             -0.0081
 Octapole moment (field-independent basis, Debye-Ang**2):
  XXX=           -225.5127  YYY=              1.1135  ZZZ=             -6.9306  XYY=            -83.5943
  XXY=             -0.1128  XXZ=              0.7037  XZZ=            -83.8533  YZZ=             -1.5748
  YYZ=              7.1026  XYZ=             -0.0082
 Hexadecapole moment (field-independent basis, Debye-Ang**3):
 XXXX=          -1953.5572 YYYY=           -619.5877 ZZZZ=           -620.1536 XXXY=             -1.1493
 XXXZ=              4.7259 YYYX=              0.9167 YYYZ=              0.0620 ZZZX=             -9.4758
 ZZZY=              0.0115 XXYY=           -492.2372 XXZZ=           -492.9399 YYZZ=           -207.0365
 XXYZ=             -0.0209 YYXZ=             10.0076 ZZXY=             -2.3957
 N-N= 8.639376385858D+01 E-N=-5.395962829292D+02  KE= 1.574644781109D+02
 Orbital energies and kinetic energies (alpha):
                                 1                 2
   1         O                -9.914706         15.953625
   2         O                -9.914704         15.953624
   3         O                -9.914679         15.953625
   4         O                -9.914667         15.953617
   5         O                -0.600403          1.263532
   6         O                -0.600228          1.265649
   7         O                -0.600226          1.265613
   8         O                -0.600204          1.265599
   9         O                -0.341338          0.951083
  10         O                -0.341269          0.951139
  11         O                -0.341202          0.951952
  12         O                -0.341134          0.950903
  13         O                -0.341096          0.952006
  14         O                -0.340871          0.955723
  15         O                -0.340751          0.955573
  16         O                -0.340701          0.955704
  17         O                -0.180985          1.091219
  18         O                -0.176044          1.142052
  19         V                -0.176058          1.142112
  20         V                -0.176026          1.142022
  21         V                 0.051878          0.714880
  22         V                 0.066323          0.762210
  23         V                 0.066368          0.762448
  24         V                 0.066382          0.762469
  25         V                 0.117914          0.771679
  26         V                 0.118026          0.771612
  27         V                 0.118066          0.771566
  28         V                 0.122493          0.788213
  29         V                 0.122524          0.791676
  30         V                 0.122537          0.791801
  31         V                 0.122571          0.788409
  32         V                 0.122605          0.791346
  33         V                 0.386572          1.119171
  34         V                 0.386777          1.119554
  35         V                 0.386796          1.119614
  36         V                 0.388136          1.094785
  37         V                 0.388143          1.094832
  38         V                 0.406403          1.124280
  39         V                 0.406406          1.124337
  40         V                 0.406575          1.124528
  41         V                 0.430250          1.877185
  42         V                 0.481894          1.869227
  43         V                 0.481989          1.868951
  44         V                 0.482003          1.868980
  45         V                 0.549657          1.795688
  46         V                 0.554609          1.804710
  47         V                 0.554678          1.804889
  48         V                 0.554701          1.804926
  49         V                 0.600508          2.023432
  50         V                 0.600692          2.023685
  51         V                 0.600713          2.023688
  52         V                 0.601250          2.011648
  53         V                 0.601307          2.011554
  54         V                 0.610639          2.029520
  55         V                 0.610659          2.029517
  56         V                 0.610774          2.029775
  57         V                 0.841031          1.898301
  58         V                 0.842587          1.906482
  59         V                 0.842604          1.906425
  60         V                 0.842619          1.906461
  61         V                 0.884335          1.667689
  62         V                 0.884365          1.667717
  63         V                 0.884524          1.667549
  64         V                 0.884533          1.667541
  65         V                 0.884621          1.667467
  66         V                 0.884828          1.666809
  67         V                 0.884991          1.666985
  68         V                 0.884992          1.666990
  69         V                 1.241699          2.113623
  70         V                 1.247752          2.110995
  71         V                 1.247783          2.111007
  72         V                 1.247887          2.111133
  73         V                 1.352356          2.029102
  74         V                 1.352371          2.029085
  75         V                 1.352377          2.029113
  76         V                 1.352382          2.029120
  77         V                 1.474090          2.192780
  78         V                 1.474167          2.192776
  79         V                 1.477159          2.192887
  80         V                 1.477190          2.192891
  81         V                 1.477323          2.192904
  82         V                 1.486909          2.190814
  83         V                 1.487011          2.190899
  84         V                 1.487062          2.190885
  85         V                 1.612554          2.528752
  86         V                 1.612930          2.529046
  87         V                 1.612970          2.529035
  88         V                 1.613810          2.527874
  89         V                 1.613872          2.527875
  90         V                 1.617573          2.543604
  91         V                 1.617596          2.543614
  92         V                 1.617818          2.543827
  93         V                 1.829860          2.618040
  94         V                 1.848751          2.618607
  95         V                 1.848894          2.618702
  96         V                 1.848929          2.618737
  97         V                 2.031980          2.812636
  98         V                 2.032049          2.812652
  99         V                 2.033192          2.811791
 100         V                 2.033379          2.811940
 101         V                 2.033409          2.811932
 102         V                 2.035925          2.810545
 103         V                 2.035976          2.810557
 104         V                 2.035999          2.810523
 105         V                 2.283686          3.957679
 106         V                 2.288173          3.960893
 107         V                 2.288186          3.960912
 108         V                 2.288368          3.961034
 109         V                 2.337299          4.188199
 110         V                 2.337393          4.188240
 111         V                 2.339869          4.190908
 112         V                 2.340040          4.192134
 113         V                 2.340068          4.192192
 114         V                 2.349884          4.199098
 115         V                 2.349923          4.199293
 116         V                 2.350021          4.199982
 Total kinetic energy from orbitals= 1.574644781109D+02
 No NMR shielding tensors so no spin-rotation constants.
 Leave Link  601 at Sat Jul  4 21:53:34 2020, MaxMem= 16642998272 cpu:        22.5
 (Enter /home/fuchs/agschreiner/public/bin/gaussian09-E.01/g09/l9999.exe)

 Test job not archived.
 1\1\GINC-NODE34-016\SP\RPBEPBE\CC-pVDZ\C4H12\SCHWAN\04-Jul-2020\0\\#p 
 cc-pVDZ pbepbe empiricaldispersion=gd3bj scf=(xqc,maxcycle=250) int=(g
 rid=ultrafine,acc2E=11) iop(6/7=3) gfinput nosymm\\opt\\0,1\C,0,6.2128
 4696,0.00159734,0.01773588\H,0,6.60568115,0.07187457,1.05342412\H,0,6.
 61717853,0.86049009,-0.55737952\H,0,6.61440469,-0.92885752,-0.43493876
 \C,0,2.07004447,-2.41482918,1.61713892\H,0,2.41435998,-2.37139708,2.67
 139722\H,0,0.96015405,-2.43868223,1.62409713\H,0,2.42639834,-3.3719144
 2,1.18245471\C,0,2.07741419,2.62526965,1.27307345\H,0,2.42479926,2.725
 06934,2.32250388\H,0,0.967583,2.65094547,1.28002128\H,0,2.43315542,3.5
 1404374,0.71144407\C,0,2.1017642,-0.19275694,-2.91935696\H,0,0.9921178
 8,-0.19185698,-2.95430958\H,0,2.45507634,-1.12590466,-3.40546619\H,0,2
 .46032723,0.66386646,-3.5272729\\Version=ES64L-G09RevE.01\HF=-158.9347
 774\RMSD=6.418e-07\Dipole=-0.0023754,0.0000205,0.0005254\Quadrupole=-0
 .010269,0.0474359,-0.037167,0.0036592,0.060577,-0.0059989\PG=C01 [X(C4
 H12)]\\@


 STEINBACH'S GUIDELINES FOR SYSTEMS PROGRAMMING:
 NEVER TEST FOR AN ERROR CONDITION YOU DON'T KNOW HOW
 TO HANDLE.
 Job cpu time:       0 days  2 hours 12 minutes 41.4 seconds.
 File lengths (MBytes):  RWF=     66 Int=      0 D2E=      0 Chk=      2 Scr=      1
 Normal termination of Gaussian 09 at Sat Jul  4 21:53:37 2020.
