      -----------------------------------------------------------      
     |                   =====================                   |     
     |                           x T B                           |     
     |                   =====================                   |     
     |                         S. Grimme                         |     
     |          Mulliken Center for Theoretical Chemistry        |     
     |                    University of Bonn                     |     
      -----------------------------------------------------------      

   * xtb version 6.2.3 (830e466) compiled by 'ehlert@majestix' on 2020-03-16

   xtb is free software: you can redistribute it and/or modify it under
   the terms of the GNU Lesser General Public License as published by
   the Free Software Foundation, either version 3 of the License, or
   (at your option) any later version.
   
   xtb is distributed in the hope that it will be useful,
   but WITHOUT ANY WARRANTY; without even the implied warranty of
   MERCHANTABILITY or FITNESS FOR A PARTICULAR PURPOSE.  See the
   GNU Lesser General Public License for more details.
   
   Cite this work as:
   * S. Grimme, C. Bannwarth, P. Shushkov, J. Chem. Theory Comput., 2017,
     13, 1989-2009. DOI: 10.1021/acs.jctc.7b00118
   * C. Bannwarth, S. Ehlert and S. Grimme., J. Chem. Theory Comput., 2019,
     15, 1652-1671. DOI: 10.1021/acs.jctc.8b01176
   * P. Pracht, E. Caldeweyher, S. Ehlert, S. Grimme, ChemRxiv, 2019, preprint.
     DOI: 10.26434/chemrxiv.8326202.v1
   
   for DFT-D4:
   * E. Caldeweyher, C. Bannwarth and S. Grimme, J. Chem. Phys., 2017,
     147, 034112. DOI: 10.1063/1.4993215
   * E. Caldeweyher, S. Ehlert, A. Hansen, H. Neugebauer, S. Spicher,
     C. Bannwarth and S. Grimme, J. Chem. Phys., 2019, 150, 154122.
     DOI: 10.1063/1.5090222
   
   for sTDA-xTB:
   * S. Grimme and C. Bannwarth, J. Chem. Phys., 2016, 145, 054103.
     DOI: 10.1063/1.4959605
   
   in the mass-spec context:
   * V. Asgeirsson, C. Bauer and S. Grimme, Chem. Sci., 2017, 8, 4879.
     DOI: 10.1039/c7sc00601b
   
   for metadynamics refer to:
   * S. Grimme, J. Chem. Theory Comput., 2019, 155, 2847-2862
     DOI: 10.1021/acs.jctc.9b00143
   
   with help from (in alphabetical order)
   C. Bannwarth, F. Bohle, G. Brandenburg, E. Caldeweyher, M. Checinski,
   S. Dohm, S. Ehlert, S. Ehrlich, F. März, H. Neugebauer, J. Pisarek,
   P. Pracht, P. Shushkov, and S. Spicher.
   
 * started run on 2020/09/25 at 10:01:15.376     

           -------------------------------------------------
          |                Calculation Setup                |
           -------------------------------------------------

          program call               : xtb start.xyz -P 1
          coordinate file            : start.xyz
          omp threads                :                     1
          number of atoms            :                    52
          number of electrons        :                   112
          charge                     :                     0
          spin                       :                   0.0
          first test random number   :      0.06630224484750


molecular fragmentation (1/2 indicates fragments):
1111111111111111111111111122222222222222222222222222
# atoms in fragment 1/2:    26    26
 fragment masses (1/2) :      136.23      136.23
CMA distance (Bohr)    :  12.657
constraining FC (au)   :  0.0500
########################################################################
[WARNING] Please study the warnings concerning your input carefully
-2- prog_main: XTBPATH is not set, using XTBHOME instead
-1- prog_main: XTBHOME is not set, using HOME instead
########################################################################
           ------------------------------------------------- 
          |                 G F N 2 - x T B                 |
          | Geometry, Frequencies, Noncovalent interactions |
          |            JCTC 2019 parametrisation            |
           ------------------------------------------------- 
             k(s)              :                1.8500
             k(p)              :                2.2300
             k(d)              :                2.2300
             k(f)              :                2.0000
             kEN (H0ij)        :               -2.0000
             D4 a1             :                0.5200
             D4 a2             :                5.0000
             D4 s6             :                1.0000
             D4 s8             :                2.7000
             D4 s9             :                5.0000
             alphaj            :                2.0000

  Z AO/shell   Hii/eV     exponent
  1     Wed Apr 25 08:07:45 CEST 2018   EN: 2.200 GM2: 0.406  GM3: 0.0800  RAES: 1.40
     1s    -10.707211    1.230000
  6     Wed Apr 25 08:07:45 CEST 2018   EN: 2.550 GM2: 0.538  GM3: 0.1500  RAES: 3.00
     2s    -13.970922    2.096432
     2p    -10.063292    1.800000

           ------------------------------------------------- 
          |        Self-Consistent Charge Iterations        |
           ------------------------------------------------- 

          ...................................................
          :                      SETUP                      :
          :.................................................:
          :  # basis functions                 112          :
          :  # atomic orbitals                 112          :
          :  # shells                           72          :
          :  # electrons                       112          :
          :  max. iterations                   250          :
          :  Hamiltonian                  GFN2-xTB          :
          :  restarted?                      false          :
          :  GBSA solvation                  false          :
          :  PC potential                    false          :
          :  electronic temp.          300.0000000     K    :
          :  accuracy                    1.0000000          :
          :  -> integral cutoff          0.2500000E+02      :
          :  -> integral neglect         0.1000000E-07      :
          :  -> SCF convergence          0.1000000E-05 Eh   :
          :  -> wf. convergence          0.1000000E-03 e    :
          :  Broyden damping             0.4000000          :
          ...................................................

 iter      E             dE          RMSdq      gap      omega  full diag
   1    -60.0027746 -0.600028E+02  0.228E+00   12.36       0.0  T
   2    -60.1359286 -0.133154E+00  0.137E+00   12.31       1.0  T
   3    -60.1373153 -0.138662E-02  0.737E-01   12.26       1.0  T
   4    -60.1376280 -0.312734E-03  0.101E-01   12.21       1.0  T
   5    -60.1377620 -0.133976E-03  0.473E-02   12.20       1.0  T
   6    -60.1377629 -0.947882E-06  0.203E-03   12.20       6.8  T
   7    -60.1377630 -0.326023E-07  0.995E-04   12.20      13.9  T
   8    -60.1377630 -0.183783E-08  0.198E-04   12.20      70.1  T

   *** convergence criteria satisfied after 8 iterations ***

         #    Occupation            Energy/Eh            Energy/eV
      -------------------------------------------------------------
         1        2.0000           -0.6400541             -17.4168
       ...           ...                  ...                  ...
        50        2.0000           -0.4255111             -11.5787
        51        2.0000           -0.3988201             -10.8524
        52        2.0000           -0.3975226             -10.8171
        53        2.0000           -0.3975085             -10.8168
        54        2.0000           -0.3964821             -10.7888
        55        2.0000           -0.3961286             -10.7792
        56        2.0000           -0.3935822             -10.7099 (HOMO)
        57                          0.0549227               1.4945 (LUMO)
        58                          0.0686879               1.8691
        59                          0.0689632               1.8766
        60                          0.0712161               1.9379
        61                          0.0712197               1.9380
       ...                                ...                  ...
       112                          0.3386907               9.2162
      -------------------------------------------------------------
                  HL-Gap            0.4485049 Eh           12.2044 eV
             Fermi-level           -0.1693298 Eh           -4.6077 eV

 SCC (total)                   0 d,  0 h,  0 min,  0.102 sec
 SCC setup                      ...        0 min,  0.001 sec (  0.626%)
 Dispersion                     ...        0 min,  0.001 sec (  1.282%)
 integral evaluation            ...        0 min,  0.047 sec ( 46.164%)
 zeroth order Hamiltonian       ...        0 min,  0.000 sec (  0.350%)
 iterations                     ...        0 min,  0.022 sec ( 21.350%)
 molecular gradient             ...        0 min,  0.030 sec ( 29.797%)
 printout                       ...        0 min,  0.000 sec (  0.396%)

         :::::::::::::::::::::::::::::::::::::::::::::::::::::
         ::                     SUMMARY                     ::
         :::::::::::::::::::::::::::::::::::::::::::::::::::::
         :: total energy             -59.276193588094 Eh    ::
         :: gradient norm              0.076169290863 Eh/a0 ::
         :: HOMO-LUMO gap             12.204439432511 eV    ::
         ::.................................................::
         :: SCC energy               -60.137762960876 Eh    ::
         :: -> isotropic ES            0.006333507799 Eh    ::
         :: -> anisotropic ES          0.012872443206 Eh    ::
         :: -> anisotropic XC          0.028737327288 Eh    ::
         :: -> dispersion             -0.051481638572 Eh    ::
         :: repulsion energy           0.860834304122 Eh    ::
         :: add. restraining           0.000000000000 Eh    ::
         :::::::::::::::::::::::::::::::::::::::::::::::::::::

           -------------------------------------------------
          |                Property Printout                |
           -------------------------------------------------

    * Orbital Energies and Occupations

         #    Occupation            Energy/Eh            Energy/eV
      -------------------------------------------------------------
         1        2.0000           -0.6400541             -17.4168
       ...           ...                  ...                  ...
        44        2.0000           -0.4275955             -11.6355
        45        2.0000           -0.4274488             -11.6315
        46        2.0000           -0.4269377             -11.6176
        47        2.0000           -0.4259198             -11.5899
        48        2.0000           -0.4258999             -11.5893
        49        2.0000           -0.4258985             -11.5893
        50        2.0000           -0.4255111             -11.5787
        51        2.0000           -0.3988201             -10.8524
        52        2.0000           -0.3975226             -10.8171
        53        2.0000           -0.3975085             -10.8168
        54        2.0000           -0.3964821             -10.7888
        55        2.0000           -0.3961286             -10.7792
        56        2.0000           -0.3935822             -10.7099 (HOMO)
        57                          0.0549227               1.4945 (LUMO)
        58                          0.0686879               1.8691
        59                          0.0689632               1.8766
        60                          0.0712161               1.9379
        61                          0.0712197               1.9380
        62                          0.0761432               2.0720
        63                          0.0856626               2.3310
        64                          0.0888978               2.4190
        65                          0.0934314               2.5424
        66                          0.1004842               2.7343
        67                          0.1004912               2.7345
       ...                                ...                  ...
       112                          0.3386907               9.2162
      -------------------------------------------------------------
                  HL-Gap            0.4485049 Eh           12.2044 eV
             Fermi-level           -0.1693298 Eh           -4.6077 eV

     #   Z        covCN         q      C6AA      α(0)
     1   6 C      3.814    -0.059    21.624     6.619
     2   6 C      3.856    -0.014    20.786     6.484
     3   6 C      3.816    -0.059    21.624     6.618
     4   6 C      3.814    -0.059    21.624     6.619
     5   6 C      3.856    -0.013    20.776     6.483
     6   6 C      3.817    -0.056    21.565     6.609
     7   6 C      3.856    -0.013    20.776     6.483
     8   6 C      3.815    -0.059    21.615     6.617
     9   6 C      3.857    -0.014    20.780     6.483
    10   6 C      3.815    -0.059    21.615     6.617
    11   1 H      0.924     0.025     2.655     2.548
    12   1 H      0.924     0.025     2.658     2.550
    13   1 H      0.924     0.027     2.630     2.536
    14   1 H      0.924     0.027     2.630     2.536
    15   1 H      0.924     0.025     2.655     2.548
    16   1 H      0.924     0.025     2.658     2.550
    17   1 H      0.924     0.026     2.643     2.542
    18   1 H      0.924     0.025     2.665     2.553
    19   1 H      0.925     0.026     2.643     2.542
    20   1 H      0.924     0.025     2.658     2.549
    21   1 H      0.925     0.026     2.643     2.542
    22   1 H      0.924     0.025     2.658     2.549
    23   1 H      0.926     0.024     2.668     2.554
    24   1 H      0.926     0.024     2.675     2.558
    25   1 H      0.926     0.024     2.675     2.558
    26   1 H      0.926     0.025     2.666     2.553
    27   6 C      3.814    -0.059    21.624     6.619
    28   6 C      3.814    -0.059    21.624     6.619
    29   6 C      3.856    -0.014    20.786     6.484
    30   6 C      3.816    -0.059    21.624     6.618
    31   6 C      3.856    -0.013    20.776     6.483
    32   6 C      3.817    -0.056    21.565     6.609
    33   6 C      3.856    -0.013    20.776     6.483
    34   6 C      3.815    -0.059    21.615     6.617
    35   6 C      3.857    -0.014    20.780     6.483
    36   6 C      3.815    -0.059    21.615     6.617
    37   1 H      0.924     0.025     2.655     2.548
    38   1 H      0.924     0.025     2.658     2.550
    39   1 H      0.924     0.025     2.655     2.548
    40   1 H      0.924     0.025     2.658     2.550
    41   1 H      0.924     0.027     2.630     2.536
    42   1 H      0.924     0.027     2.630     2.536
    43   1 H      0.924     0.026     2.643     2.542
    44   1 H      0.924     0.025     2.665     2.553
    45   1 H      0.925     0.026     2.643     2.542
    46   1 H      0.924     0.025     2.658     2.549
    47   1 H      0.925     0.026     2.643     2.542
    48   1 H      0.924     0.025     2.658     2.549
    49   1 H      0.926     0.024     2.668     2.554
    50   1 H      0.926     0.024     2.675     2.558
    51   1 H      0.926     0.024     2.675     2.558
    52   1 H      0.926     0.025     2.666     2.553

 Mol. C6AA /au·bohr⁶  :      20787.542344
 Mol. C8AA /au·bohr⁸  :     457727.516977
 Mol. α(0) /au        :        212.799313


Wiberg/Mayer (AO) data.
largest (>0.10) Wiberg bond orders for each atom
          total WBO             WBO to atom ...
     1  C   3.998        C    5 0.998    C    2 0.998    H   12 0.977    H   11 0.977
     2  C   3.997        C    3 0.998    C    1 0.998    C    4 0.998    H   23 0.970
     3  C   3.998        C    2 0.998    C    9 0.997    H   14 0.977    H   13 0.977
     4  C   3.998        C    7 0.998    C    2 0.998    H   16 0.977    H   15 0.977
     5  C   3.997        C    1 0.998    C   10 0.998    C    6 0.997    H   24 0.970
     6  C   3.998        C    5 0.997    C    7 0.997    H   17 0.976    H   18 0.971
     7  C   3.997        C    4 0.998    C    8 0.998    C    6 0.997    H   25 0.970
     8  C   3.998        C    9 0.998    C    7 0.998    H   20 0.977    H   19 0.976
     9  C   3.997        C    8 0.998    C   10 0.998    C    3 0.997    H   26 0.970
    10  C   3.998        C    9 0.998    C    5 0.998    H   22 0.977    H   21 0.976
    11  H   0.999        C    1 0.977
    12  H   0.999        C    1 0.977
    13  H   0.999        C    3 0.977
    14  H   0.999        C    3 0.977
    15  H   0.999        C    4 0.977
    16  H   0.999        C    4 0.977
    17  H   0.999        C    6 0.976
    18  H   0.999        C    6 0.971
    19  H   0.999        C    8 0.976
    20  H   0.999        C    8 0.977
    21  H   0.999        C   10 0.976
    22  H   0.999        C   10 0.977
    23  H   0.999        C    2 0.970
    24  H   0.999        C    5 0.970
    25  H   0.999        C    7 0.970
    26  H   0.999        C    9 0.970
    27  C   3.998        C   33 0.998    C   29 0.998    H   38 0.977    H   37 0.977
    28  C   3.998        C   31 0.998    C   29 0.998    H   40 0.977    H   39 0.977
    29  C   3.997        C   30 0.998    C   28 0.998    C   27 0.998    H   49 0.970
    30  C   3.998        C   29 0.998    C   35 0.997    H   41 0.977    H   42 0.977
    31  C   3.997        C   28 0.998    C   36 0.998    C   32 0.997    H   50 0.970
    32  C   3.998        C   31 0.997    C   33 0.997    H   43 0.976    H   44 0.971
    33  C   3.997        C   27 0.998    C   34 0.998    C   32 0.997    H   51 0.970
    34  C   3.998        C   35 0.998    C   33 0.998    H   46 0.977    H   45 0.976
    35  C   3.997        C   34 0.998    C   36 0.998    C   30 0.997    H   52 0.970
    36  C   3.998        C   35 0.998    C   31 0.998    H   48 0.977    H   47 0.976
    37  H   0.999        C   27 0.977
    38  H   0.999        C   27 0.977
    39  H   0.999        C   28 0.977
    40  H   0.999        C   28 0.977
    41  H   0.999        C   30 0.977
    42  H   0.999        C   30 0.977
    43  H   0.999        C   32 0.976
    44  H   0.999        C   32 0.971
    45  H   0.999        C   34 0.976
    46  H   0.999        C   34 0.977
    47  H   0.999        C   36 0.976
    48  H   0.999        C   36 0.977
    49  H   0.999        C   29 0.970
    50  H   0.999        C   31 0.970
    51  H   0.999        C   33 0.970
    52  H   0.999        C   35 0.970

molecular dipole:
                 x           y           z       tot (Debye)
 q only:        0.000      -0.000       0.000
   full:        0.000      -0.000       0.000       0.000
molecular quadrupole (traceless):
                xx          xy          yy          xz          yz          zz
 q only:        0.031      -0.096       0.038      -0.162       0.168      -0.069
  q+dip:        0.016       0.141       0.006       0.045      -0.046      -0.022
   full:       -0.008       0.067      -0.013      -0.011       0.011       0.021


           -------------------------------------------------
          | TOTAL ENERGY              -59.276193588094 Eh   |
          | GRADIENT NORM               0.076169290863 Eh/α |
          | HOMO-LUMO GAP              12.204439432511 eV   |
           -------------------------------------------------

------------------------------------------------------------------------
 * finished run on 2020/09/25 at 10:01:15.515     
------------------------------------------------------------------------
 total:
 * wall-time:     0 d,  0 h,  0 min,  0.139 sec
 *  cpu-time:     0 d,  0 h,  0 min,  0.138 sec
 * ratio c/w:     0.997 speedup
 SCF:
 * wall-time:     0 d,  0 h,  0 min,  0.102 sec
 *  cpu-time:     0 d,  0 h,  0 min,  0.102 sec
 * ratio c/w:     0.999 speedup

