      -----------------------------------------------------------      
     |                   =====================                   |     
     |                           x T B                           |     
     |                   =====================                   |     
     |                         S. Grimme                         |     
     |          Mulliken Center for Theoretical Chemistry        |     
     |                    University of Bonn                     |     
      -----------------------------------------------------------      

   * xtb version 6.2.3 (830e466) compiled by 'ehlert@majestix' on 2020-03-16

   xtb is free software: you can redistribute it and/or modify it under
   the terms of the GNU Lesser General Public License as published by
   the Free Software Foundation, either version 3 of the License, or
   (at your option) any later version.
   
   xtb is distributed in the hope that it will be useful,
   but WITHOUT ANY WARRANTY; without even the implied warranty of
   MERCHANTABILITY or FITNESS FOR A PARTICULAR PURPOSE.  See the
   GNU Lesser General Public License for more details.
   
   Cite this work as:
   * S. Grimme, C. Bannwarth, P. Shushkov, J. Chem. Theory Comput., 2017,
     13, 1989-2009. DOI: 10.1021/acs.jctc.7b00118
   * C. Bannwarth, S. Ehlert and S. Grimme., J. Chem. Theory Comput., 2019,
     15, 1652-1671. DOI: 10.1021/acs.jctc.8b01176
   * P. Pracht, E. Caldeweyher, S. Ehlert, S. Grimme, ChemRxiv, 2019, preprint.
     DOI: 10.26434/chemrxiv.8326202.v1
   
   for DFT-D4:
   * E. Caldeweyher, C. Bannwarth and S. Grimme, J. Chem. Phys., 2017,
     147, 034112. DOI: 10.1063/1.4993215
   * E. Caldeweyher, S. Ehlert, A. Hansen, H. Neugebauer, S. Spicher,
     C. Bannwarth and S. Grimme, J. Chem. Phys., 2019, 150, 154122.
     DOI: 10.1063/1.5090222
   
   for sTDA-xTB:
   * S. Grimme and C. Bannwarth, J. Chem. Phys., 2016, 145, 054103.
     DOI: 10.1063/1.4959605
   
   in the mass-spec context:
   * V. Asgeirsson, C. Bauer and S. Grimme, Chem. Sci., 2017, 8, 4879.
     DOI: 10.1039/c7sc00601b
   
   for metadynamics refer to:
   * S. Grimme, J. Chem. Theory Comput., 2019, 155, 2847-2862
     DOI: 10.1021/acs.jctc.9b00143
   
   with help from (in alphabetical order)
   C. Bannwarth, F. Bohle, G. Brandenburg, E. Caldeweyher, M. Checinski,
   S. Dohm, S. Ehlert, S. Ehrlich, F. März, H. Neugebauer, J. Pisarek,
   P. Pracht, P. Shushkov, and S. Spicher.
   
 * started run on 2020/09/25 at 10:01:16.198     

           -------------------------------------------------
          |                Calculation Setup                |
           -------------------------------------------------

          program call               : xtb start.xyz -P 1
          coordinate file            : start.xyz
          omp threads                :                     1
          number of atoms            :                    48
          number of electrons        :                   120
          charge                     :                     0
          spin                       :                   0.0
          first test random number   :      0.17203504900587


molecular fragmentation (1/2 indicates fragments):
111111111111222222222222222222222222222222222222
# atoms in fragment 1/2:    12    36
 fragment masses (1/2) :       78.11      234.34
CMA distance (Bohr)    :  11.402
constraining FC (au)   :  0.0500
########################################################################
[WARNING] Please study the warnings concerning your input carefully
-2- prog_main: XTBPATH is not set, using XTBHOME instead
-1- prog_main: XTBHOME is not set, using HOME instead
########################################################################
           ------------------------------------------------- 
          |                 G F N 2 - x T B                 |
          | Geometry, Frequencies, Noncovalent interactions |
          |            JCTC 2019 parametrisation            |
           ------------------------------------------------- 
             k(s)              :                1.8500
             k(p)              :                2.2300
             k(d)              :                2.2300
             k(f)              :                2.0000
             kEN (H0ij)        :               -2.0000
             D4 a1             :                0.5200
             D4 a2             :                5.0000
             D4 s6             :                1.0000
             D4 s8             :                2.7000
             D4 s9             :                5.0000
             alphaj            :                2.0000

  Z AO/shell   Hii/eV     exponent
  1     Wed Apr 25 08:07:45 CEST 2018   EN: 2.200 GM2: 0.406  GM3: 0.0800  RAES: 1.40
     1s    -10.707211    1.230000
  6     Wed Apr 25 08:07:45 CEST 2018   EN: 2.550 GM2: 0.538  GM3: 0.1500  RAES: 3.00
     2s    -13.970922    2.096432
     2p    -10.063292    1.800000

           ------------------------------------------------- 
          |        Self-Consistent Charge Iterations        |
           ------------------------------------------------- 

          ...................................................
          :                      SETUP                      :
          :.................................................:
          :  # basis functions                 120          :
          :  # atomic orbitals                 120          :
          :  # shells                           72          :
          :  # electrons                       120          :
          :  max. iterations                   250          :
          :  Hamiltonian                  GFN2-xTB          :
          :  restarted?                      false          :
          :  GBSA solvation                  false          :
          :  PC potential                    false          :
          :  electronic temp.          300.0000000     K    :
          :  accuracy                    1.0000000          :
          :  -> integral cutoff          0.2500000E+02      :
          :  -> integral neglect         0.1000000E-07      :
          :  -> SCF convergence          0.1000000E-05 Eh   :
          :  -> wf. convergence          0.1000000E-03 e    :
          :  Broyden damping             0.4000000          :
          ...................................................

 iter      E             dE          RMSdq      gap      omega  full diag
   1    -64.7247203 -0.647247E+02  0.394E+00    4.90       0.0  T
   2    -64.7827081 -0.579878E-01  0.230E+00    4.88       1.0  T
   3    -64.7846857 -0.197753E-02  0.519E-01    4.88       1.0  T
   4    -64.7855540 -0.868319E-03  0.502E-02    4.87       1.0  T
   5    -64.7855451  0.885417E-05  0.275E-02    4.88       1.0  T
   6    -64.7855647 -0.196205E-04  0.374E-03    4.87       3.9  T
   7    -64.7855654 -0.681257E-06  0.138E-03    4.87      10.5  T
   8    -64.7855655 -0.793185E-07  0.456E-04    4.87      31.7  T
   9    -64.7855655 -0.883347E-10  0.137E-04    4.87     105.6  T

   *** convergence criteria satisfied after 9 iterations ***

         #    Occupation            Energy/Eh            Energy/eV
      -------------------------------------------------------------
         1        2.0000           -0.6418080             -17.4645
       ...           ...                  ...                  ...
        54        2.0000           -0.4031178             -10.9694
        55        2.0000           -0.4030858             -10.9685
        56        2.0000           -0.4030789             -10.9683
        57        2.0000           -0.4024370             -10.9509
        58        2.0000           -0.4024102             -10.9501
        59        2.0000           -0.4024068             -10.9500
        60        2.0000           -0.4023374             -10.9482 (HOMO)
        61                         -0.2232475              -6.0749 (LUMO)
        62                         -0.2231484              -6.0722
        63                         -0.2231158              -6.0713
        64                         -0.2231112              -6.0712
        65                         -0.2208332              -6.0092
       ...                                ...                  ...
       120                          0.6749726              18.3669
      -------------------------------------------------------------
                  HL-Gap            0.1790899 Eh            4.8733 eV
             Fermi-level           -0.3127925 Eh           -8.5115 eV

 SCC (total)                   0 d,  0 h,  0 min,  0.111 sec
 SCC setup                      ...        0 min,  0.001 sec (  0.494%)
 Dispersion                     ...        0 min,  0.001 sec (  0.757%)
 integral evaluation            ...        0 min,  0.055 sec ( 49.467%)
 zeroth order Hamiltonian       ...        0 min,  0.000 sec (  0.262%)
 iterations                     ...        0 min,  0.028 sec ( 25.281%)
 molecular gradient             ...        0 min,  0.026 sec ( 23.286%)
 printout                       ...        0 min,  0.000 sec (  0.421%)

         :::::::::::::::::::::::::::::::::::::::::::::::::::::
         ::                     SUMMARY                     ::
         :::::::::::::::::::::::::::::::::::::::::::::::::::::
         :: total energy             -63.519797566506 Eh    ::
         :: gradient norm              0.037742877779 Eh/a0 ::
         :: HOMO-LUMO gap              4.873285317926 eV    ::
         ::.................................................::
         :: SCC energy               -64.785565497026 Eh    ::
         :: -> isotropic ES            0.003081470418 Eh    ::
         :: -> anisotropic ES          0.010928993055 Eh    ::
         :: -> anisotropic XC          0.049500629571 Eh    ::
         :: -> dispersion             -0.036942245308 Eh    ::
         :: repulsion energy           1.265852204541 Eh    ::
         :: add. restraining           0.000000000000 Eh    ::
         :::::::::::::::::::::::::::::::::::::::::::::::::::::

           -------------------------------------------------
          |                Property Printout                |
           -------------------------------------------------

    * Orbital Energies and Occupations

         #    Occupation            Energy/Eh            Energy/eV
      -------------------------------------------------------------
         1        2.0000           -0.6418080             -17.4645
       ...           ...                  ...                  ...
        48        2.0000           -0.4232153             -11.5163
        49        2.0000           -0.4206683             -11.4470
        50        2.0000           -0.4206439             -11.4463
        51        2.0000           -0.4200626             -11.4305
        52        2.0000           -0.4200120             -11.4291
        53        2.0000           -0.4031208             -10.9695
        54        2.0000           -0.4031178             -10.9694
        55        2.0000           -0.4030858             -10.9685
        56        2.0000           -0.4030789             -10.9683
        57        2.0000           -0.4024370             -10.9509
        58        2.0000           -0.4024102             -10.9501
        59        2.0000           -0.4024068             -10.9500
        60        2.0000           -0.4023374             -10.9482 (HOMO)
        61                         -0.2232475              -6.0749 (LUMO)
        62                         -0.2231484              -6.0722
        63                         -0.2231158              -6.0713
        64                         -0.2231112              -6.0712
        65                         -0.2208332              -6.0092
        66                         -0.2207275              -6.0063
        67                         -0.2206205              -6.0034
        68                         -0.2206185              -6.0033
        69                         -0.0912792              -2.4838
        70                         -0.0911372              -2.4800
        71                         -0.0909921              -2.4760
       ...                                ...                  ...
       120                          0.6749726              18.3669
      -------------------------------------------------------------
                  HL-Gap            0.1790899 Eh            4.8733 eV
             Fermi-level           -0.3127925 Eh           -8.5115 eV

     #   Z        covCN         q      C6AA      α(0)
     1   6 C      2.912    -0.028    28.699     8.785
     2   6 C      2.925    -0.028    28.701     8.786
     3   6 C      2.924    -0.028    28.710     8.787
     4   6 C      2.919    -0.029    28.716     8.788
     5   1 H      0.926     0.028     2.612     2.528
     6   6 C      2.920    -0.029    28.733     8.790
     7   1 H      0.926     0.027     2.627     2.534
     8   6 C      2.919    -0.028    28.709     8.786
     9   1 H      0.926     0.029     2.600     2.522
    10   1 H      0.926     0.029     2.608     2.525
    11   1 H      0.926     0.029     2.602     2.523
    12   1 H      0.926     0.029     2.601     2.522
    13   6 C      2.912    -0.028    28.702     8.785
    14   6 C      2.924    -0.028    28.711     8.787
    15   6 C      2.926    -0.028    28.699     8.785
    16   6 C      2.920    -0.029    28.734     8.790
    17   1 H      0.926     0.027     2.628     2.535
    18   6 C      2.919    -0.029    28.714     8.787
    19   1 H      0.926     0.028     2.612     2.527
    20   6 C      2.920    -0.028    28.709     8.787
    21   1 H      0.926     0.028     2.608     2.525
    22   1 H      0.926     0.029     2.599     2.521
    23   1 H      0.926     0.029     2.603     2.523
    24   1 H      0.926     0.029     2.599     2.521
    25   6 C      2.912    -0.028    28.700     8.785
    26   6 C      2.926    -0.028    28.709     8.787
    27   6 C      2.926    -0.028    28.700     8.785
    28   6 C      2.920    -0.029    28.734     8.790
    29   1 H      0.926     0.027     2.631     2.537
    30   6 C      2.920    -0.029    28.717     8.788
    31   1 H      0.926     0.028     2.612     2.527
    32   6 C      2.920    -0.028    28.706     8.786
    33   1 H      0.926     0.029     2.606     2.524
    34   1 H      0.926     0.029     2.601     2.522
    35   1 H      0.926     0.029     2.603     2.523
    36   1 H      0.926     0.029     2.598     2.520
    37   6 C      2.912    -0.028    28.700     8.785
    38   6 C      2.926    -0.028    28.709     8.787
    39   6 C      2.926    -0.028    28.700     8.785
    40   6 C      2.920    -0.029    28.734     8.790
    41   1 H      0.926     0.027     2.631     2.537
    42   6 C      2.920    -0.029    28.717     8.788
    43   1 H      0.926     0.028     2.612     2.527
    44   6 C      2.920    -0.028    28.706     8.786
    45   1 H      0.926     0.029     2.606     2.524
    46   1 H      0.926     0.029     2.601     2.522
    47   1 H      0.926     0.029     2.603     2.523
    48   1 H      0.926     0.029     2.598     2.520

 Mol. C6AA /au·bohr⁶  :      27996.357403
 Mol. C8AA /au·bohr⁸  :     682621.711459
 Mol. α(0) /au        :        271.500694


Wiberg/Mayer (AO) data.
largest (>0.10) Wiberg bond orders for each atom
          total WBO             WBO to atom ...
     1  C   3.992        C    3 1.444    C    2 1.434    H   12 0.972    C    8 0.116
     2  C   3.993        C    4 1.449    C    1 1.434    H    5 0.972    C    6 0.113
     3  C   3.993        C    1 1.444    C    6 1.439    H    7 0.972    C    4 0.112
     4  C   3.993        C    2 1.449    C    8 1.436    H    9 0.971    C    3 0.112
     5  H   0.999        C    2 0.972
     6  C   3.993        C    8 1.445    C    3 1.439    H   10 0.972    C    2 0.113
     7  H   0.999        C    3 0.972
     8  C   3.993        C    6 1.445    C    4 1.436    H   11 0.971    C    1 0.116
     9  H   0.999        C    4 0.971
    10  H   0.999        C    6 0.972
    11  H   0.999        C    8 0.971
    12  H   0.999        C    1 0.972
    13  C   3.992        C   14 1.445    C   15 1.434    H   24 0.972    C   20 0.116
    14  C   3.993        C   13 1.445    C   16 1.439    H   17 0.972    C   18 0.112
    15  C   3.993        C   18 1.449    C   13 1.434    H   19 0.972    C   16 0.113
    16  C   3.993        C   20 1.445    C   14 1.439    H   21 0.972    C   15 0.113
    17  H   0.999        C   14 0.972
    18  C   3.993        C   15 1.449    C   20 1.436    H   22 0.971    C   14 0.112
    19  H   0.999        C   15 0.972
    20  C   3.993        C   16 1.445    C   18 1.436    H   23 0.971    C   13 0.116
    21  H   0.999        C   16 0.972
    22  H   0.999        C   18 0.971
    23  H   0.999        C   20 0.971
    24  H   0.999        C   13 0.972
    25  C   3.992        C   26 1.444    C   27 1.434    H   36 0.972    C   32 0.116
    26  C   3.993        C   25 1.444    C   28 1.439    H   29 0.972    C   30 0.112
    27  C   3.993        C   30 1.448    C   25 1.434    H   31 0.972    C   28 0.113
    28  C   3.993        C   32 1.445    C   26 1.439    H   33 0.971    C   27 0.113
    29  H   0.999        C   26 0.972
    30  C   3.993        C   27 1.448    C   32 1.436    H   34 0.971    C   26 0.112
    31  H   0.999        C   27 0.972
    32  C   3.993        C   28 1.445    C   30 1.436    H   35 0.971    C   25 0.116
    33  H   0.999        C   28 0.971
    34  H   0.999        C   30 0.971
    35  H   0.999        C   32 0.971
    36  H   0.999        C   25 0.972
    37  C   3.992        C   38 1.444    C   39 1.434    H   48 0.972    C   44 0.116
    38  C   3.993        C   37 1.444    C   40 1.439    H   41 0.972    C   42 0.112
    39  C   3.993        C   42 1.448    C   37 1.434    H   43 0.972    C   40 0.113
    40  C   3.993        C   44 1.445    C   38 1.439    H   45 0.971    C   39 0.113
    41  H   0.999        C   38 0.972
    42  C   3.993        C   39 1.448    C   44 1.436    H   46 0.971    C   38 0.112
    43  H   0.999        C   39 0.972
    44  C   3.993        C   40 1.445    C   42 1.436    H   47 0.971    C   37 0.116
    45  H   0.999        C   40 0.971
    46  H   0.999        C   42 0.971
    47  H   0.999        C   44 0.971
    48  H   0.999        C   37 0.972

molecular dipole:
                 x           y           z       tot (Debye)
 q only:        0.000      -0.000       0.000
   full:        0.001      -0.001       0.002       0.006
molecular quadrupole (traceless):
                xx          xy          yy          xz          yz          zz
 q only:       -0.184      -0.951      -0.118      -1.074       1.112       0.302
  q+dip:       -0.892      -4.460      -0.583      -5.070       5.246       1.475
   full:       -0.420      -2.134      -0.273      -2.394       2.477       0.693


           -------------------------------------------------
          | TOTAL ENERGY              -63.519797566506 Eh   |
          | GRADIENT NORM               0.037742877779 Eh/α |
          | HOMO-LUMO GAP               4.873285317926 eV   |
           -------------------------------------------------

------------------------------------------------------------------------
 * finished run on 2020/09/25 at 10:01:16.348     
------------------------------------------------------------------------
 total:
 * wall-time:     0 d,  0 h,  0 min,  0.149 sec
 *  cpu-time:     0 d,  0 h,  0 min,  0.148 sec
 * ratio c/w:     0.994 speedup
 SCF:
 * wall-time:     0 d,  0 h,  0 min,  0.111 sec
 *  cpu-time:     0 d,  0 h,  0 min,  0.111 sec
 * ratio c/w:     0.998 speedup

