12
	Energy:      10.7818159
C         -1.24009        3.77209        1.00000
C          0.15883        3.74016        1.00000
C          0.83043        2.51258        1.00000
C          0.20332        1.31704        1.00000
C         -1.29560        1.34921        1.00000
C         -1.96741        2.57668        1.00000
F         -3.42285        2.60774        1.00000
H         -1.75972        4.72170        1.00000
F          0.86345        4.89848        1.00000
H          1.81263        2.48778        1.00000
F          0.75414        0.12766        1.00000
H         -1.85818        0.42440        1.00000
