LAMMPS (3 Mar 2020)
# Dimer - Test

dimension		3
boundary		p p p

units			real

atom_style		charge
read_data		dimer.dat
  orthogonal box = (0 0 0) to (28.5 28.5 28.5)
  1 by 1 by 1 MPI processor grid
  reading atoms ...
  1980 atoms
  read_data CPU = 0.00131321 secs

pair_style 		reax/c lmp_control
pair_coeff 		* * ffield.reax.hns C H

neighbor		2 bin
neigh_modify	every 10 delay 0 check no

fix				1 all nve
fix				2 all qeq/reax 1 0.0 10.0 1e-6 reax/c
fix				3 all temp/berendsen 400.0 400.0 100.0

timestep    0.25
thermo      100

dump xyzdump all xyz 50 dump_dimer.xyz

run 50000
Neighbor list info ...
  update every 10 steps, delay 0 steps, check no
  max neighbors/atom: 2000, page size: 100000
  master list distance cutoff = 12
  ghost atom cutoff = 12
  binsize = 6, bins = 5 5 5
  2 neighbor lists, perpetual/occasional/extra = 2 0 0
  (1) pair reax/c, perpetual
      attributes: half, newton off, ghost
      pair build: half/bin/newtoff/ghost
      stencil: half/ghost/bin/3d/newtoff
      bin: standard
  (2) fix qeq/reax, perpetual, copy from (1)
      attributes: half, newton off, ghost
      pair build: copy
      stencil: none
      bin: none
Per MPI rank memory allocation (min/avg/max) = 249.7 | 249.7 | 249.7 Mbytes
Step Temp E_pair E_mol TotEng Press
       0            0    -258109.9            0    -258109.9    306555.93
     100     342.3811   -260020.48            0   -258000.77    1766.5327
     200    366.20859   -260079.66            0   -257919.39   -37980.917
     300    355.28417   -259962.45            0   -257866.62   -22449.928
     400    359.27412   -259924.27            0    -257804.9    8777.6759
     500    361.40891   -259886.65            0   -257754.69   -18297.333
     600    361.54789   -259841.99            0   -257709.21   -5696.7996
     700    385.56629   -259941.92            0   -257667.46   -16018.029
     800     386.1363    -259910.2            0   -257632.38   -7890.0071
     900    379.22217   -259837.62            0   -257600.58   -16335.247
    1000    379.37984   -259813.48            0   -257575.51    1342.9995
    1100    384.74013   -259825.09            0    -257555.5    5429.5396
    1200    390.91456   -259840.45            0   -257534.44    2189.7054
    1300    394.87566   -259855.09            0   -257525.71   -3025.5109
    1400    397.42686   -259861.99            0   -257517.56   -9026.8597
    1500    405.28634   -259904.15            0   -257513.35   -334.16392
    1600    401.81633   -259885.78            0   -257515.45    10098.439
    1700    401.84299    -259887.4            0   -257516.92   -4685.8907
    1800    396.36011    -259846.9            0   -257508.77   -278.21182
    1900    388.12435   -259789.32            0   -257499.77    1889.1769
    2000    383.52136   -259749.39            0   -257486.99    9876.4644
    2100    391.75993   -259783.18            0   -257472.18   -3333.9502
    2200    395.06052   -259792.56            0   -257462.09     4474.756
    2300    398.56195   -259804.42            0   -257453.29   -8922.4378
    2400    399.71952   -259806.86            0   -257448.91   -4707.7566
    2500    394.38731   -259772.81            0   -257446.31   -1451.8561
    2600    408.06339    -259855.8            0   -257448.62   -3366.0348
    2700    396.46487   -259792.25            0   -257453.49    1279.8854
    2800    400.11719    -259812.7            0   -257452.39    6380.3413
    2900    399.36729   -259810.74            0   -257454.86    1253.2361
    3000    396.22526   -259788.21            0   -257450.87    2237.6495
    3100    405.33919   -259838.48            0   -257447.38   -4372.5136
    3200    403.17847   -259828.06            0    -257449.7     2951.213
    3300    404.48356   -259837.73            0   -257451.67    3888.0503
    3400    408.63035   -259866.98            0   -257456.46   -415.77709
    3500    393.46127    -259781.4            0   -257460.36    8403.0976
    3600    403.28631   -259843.08            0   -257464.09    10367.585
    3700    405.31215    -259863.3            0   -257472.35    3899.1164
    3800    403.19253   -259854.44            0      -257476   -8442.4031
    3900    407.24466   -259881.75            0    -257479.4    3013.7756
    4000    404.94983   -259871.08            0   -257482.27   -1621.9868
    4100    403.44939   -259860.21            0   -257480.26    10221.164
    4200    404.44248    -259869.1            0   -257483.28    2447.8315
    4300    408.44405   -259891.13            0   -257481.71   -2794.7371
    4400    397.36876   -259823.64            0   -257479.55   -2448.0569
    4500    405.57585   -259872.44            0   -257479.93   -5493.2792
    4600    401.14254   -259851.76            0   -257485.41    216.80329
    4700    404.54701   -259874.93            0    -257488.5   -6913.0406
    4800    402.42246   -259861.44            0   -257487.54    8085.2399
    4900     398.5778   -259835.16            0   -257483.94   -6676.7179
    5000    404.57473   -259866.18            0   -257479.59    -1506.726
    5100    386.36529    -259754.1            0   -257474.92    -4297.049
    5200     397.0512   -259818.26            0   -257476.04    1749.5029
    5300    390.69777   -259781.11            0   -257476.37   -563.20652
    5400    403.05936   -259854.47            0   -257476.82    5376.6516
    5500    407.08936   -259880.52            0   -257479.09    6056.2764
    5600    403.99074   -259866.29            0   -257483.14   -5647.3008
    5700    401.21879   -259850.84            0   -257484.04    281.39301
    5800    387.29482   -259769.86            0    -257485.2      634.732
    5900    404.51028    -259867.7            0   -257481.49   -2301.7661
    6000    409.16949   -259898.69            0   -257484.99    1777.6674
    6100    409.82537   -259900.83            0   -257483.26    1490.0939
    6200    411.27825   -259917.54            0    -257491.4   -1071.9107
    6300    405.02665   -259891.34            0   -257502.07   -1288.8793
    6400    398.20719   -259859.59            0   -257510.56   -343.75017
    6500    400.01713   -259873.96            0   -257514.25   -9920.7264
    6600    390.46806   -259818.17            0   -257514.79    492.85568
    6700    388.33468   -259797.16            0   -257506.37   -1837.7262
    6800    407.04694   -259903.03            0   -257501.85   -6004.9105
    6900    406.67452   -259904.77            0   -257505.79    414.94655
    7000    395.75048   -259838.05            0   -257503.51    2950.4997
    7100    411.12564   -259930.45            0   -257505.21   -206.93135
    7200    404.37398   -259891.77            0   -257506.35   -3361.6365
    7300    395.23062    -259834.3            0   -257502.83   -4079.7859
    7400    404.57917   -259888.81            0   -257502.19    2222.1522
    7500    394.28313   -259821.39            0   -257495.51   -212.87049
    7600    398.47802   -259845.11            0   -257494.48   -151.99138
    7700      393.463   -259810.59            0   -257489.55    3984.5717
    7800    406.87549   -259886.21            0   -257486.04     3418.288
    7900    404.99559      -259879            0   -257489.93   -1779.2125
    8000    406.24829   -259894.71            0   -257498.25   -4983.5817
    8100    412.56976   -259939.35            0    -257505.6   -3564.2876
    8200     403.7358   -259891.42            0   -257509.77    1327.6983
    8300    398.88583   -259864.49            0   -257511.45    7096.3815
    8400     408.0928   -259921.99            0   -257514.64   -3492.3503
    8500    407.69627   -259927.28            0   -257522.27    -3304.135
    8600    402.76672    -259904.8            0   -257528.87   -9120.7359
    8700    405.16966   -259926.16            0   -257536.06    -3875.266
    8800    405.47095    -259933.6            0   -257541.71     2260.671
    8900    404.98962   -259935.19            0   -257546.15   -3768.7055
    9000     407.0726   -259951.38            0   -257550.05    1784.8156
    9100    404.83096   -259938.26            0   -257550.15    2250.8185
    9200    405.71941   -259943.75            0    -257550.4     -6080.63
    9300    397.19828   -259889.77            0   -257546.69   -10042.367
    9400    390.84982   -259852.99            0   -257547.35    2278.5348
    9500    398.56146   -259900.68            0   -257549.56   -722.81227
    9600    404.90051   -259939.72            0   -257551.21   -931.33421
    9700    398.65664   -259901.03            0   -257549.34   -6655.6512
    9800    403.04646   -259928.59            0   -257551.01    599.79878
    9900    414.73157   -260000.98            0   -257554.46    1289.4018
   10000    400.81018   -259918.65            0   -257554.26   -4476.0369
   10100     400.4871   -259917.42            0   -257554.93    1693.2098
   10200    392.56799   -259874.63            0   -257558.86   -5338.1302
   10300    400.36865   -259920.88            0    -257559.1    2141.1397
   10400     401.7157   -259927.53            0    -257557.8    160.33869
   10500    398.09165   -259904.78            0   -257556.42    646.41253
   10600    397.45681   -259899.11            0    -257554.5    3546.7805
   10700    401.20099   -259922.71            0   -257556.01   -5116.8857
   10800     403.4379   -259935.59            0    -257555.7    6347.1301
   10900     400.0086   -259919.59            0   -257559.93     483.4017
   11000    404.16319   -259944.49            0   -257560.32   -5822.1538
   11100    396.75997   -259901.67            0   -257561.17    3107.3245
   11200    400.53579   -259919.02            0   -257556.25    2415.8636
   11300    402.10529    -259923.3            0   -257551.28   -2912.2407
   11400    403.91599    -259929.6            0   -257546.89   -2293.2235
   11500    399.28174   -259899.02            0   -257543.65    1004.1297
   11600    399.01698   -259899.85            0   -257546.04   -3117.1593
   11700    401.78764   -259911.49            0   -257541.34    4144.6059
   11800    398.73153   -259894.31            0   -257542.19   -7005.9418
   11900    406.12577   -259939.69            0   -257543.94    154.77273
   12000    402.96783   -259920.23            0   -257543.12   -2144.7872
   12100    405.58843   -259934.98            0    -257542.4    892.82418
   12200    397.67922   -259888.54            0   -257542.62   -2630.9937
   12300    406.25769   -259937.09            0   -257540.57   -6278.8238
   12400    398.72386    -259893.7            0   -257541.62   -4406.6037
   12500    398.34537   -259893.45            0    -257543.6    1202.3973
   12600    393.53641   -259867.77            0   -257546.29    2468.8096
   12700    396.47956   -259888.51            0   -257549.67   -545.28446
   12800    402.50931   -259925.37            0   -257550.96   -464.51679
   12900    407.15638   -259954.22            0    -257552.4   -5577.5705
   13000    401.25523   -259918.14            0   -257551.13   -5834.7715
   13100    392.83881   -259868.02            0   -257550.65   -3476.9004
   13200    396.89339   -259892.11            0   -257550.83   -1621.4747
   13300    400.48476    -259909.8            0   -257547.33   -8241.8406
   13400    400.74611   -259908.89            0   -257544.88    6336.7078
   13500     396.3576   -259884.18            0   -257546.06   -1508.0456
   13600    409.69258   -259961.19            0    -257544.4   -2092.9287
   13700      400.154   -259906.59            0   -257546.07    1064.1231
   13800    395.95567   -259884.92            0   -257549.17   -2098.5395
   13900    392.86013   -259863.32            0   -257545.82   -711.51807
   14000     398.5238   -259893.92            0   -257543.01   -838.99911
   14100    403.68454   -259928.39            0   -257547.05   -3713.6118
   14200    391.08455   -259853.94            0   -257546.92   -1463.2029
   14300    401.81439   -259925.13            0   -257554.82    2262.7425
   14400     401.5466   -259924.94            0   -257556.21   -6954.0966
   14500    395.50295   -259890.09            0   -257557.01   -2058.8321
   14600    404.99402   -259943.99            0   -257554.92    -4350.018
   14700    394.34444   -259877.84            0   -257551.59    6798.4863
   14800    403.39853   -259936.28            0   -257556.62    -2505.358
   14900    401.09259   -259923.26            0    -257557.2   -10423.661
   15000    392.83051   -259871.05            0   -257553.73     3155.005
   15100    408.00357   -259962.72            0    -257555.9    5611.7475
   15200    395.62935   -259890.14            0   -257556.31   -4082.4388
   15300    408.17118   -259968.28            0   -257560.47    659.83379
   15400    407.38172   -259973.55            0   -257570.39   -3033.5179
   15500    408.74464   -259985.42            0   -257574.22     6844.564
   15600    395.28386   -259911.34            0   -257579.55   -4145.9456
   15700    398.09557   -259926.91            0   -257578.54    1634.2434
   15800    397.78629   -259930.71            0   -257584.16    850.28506
   15900    399.57616   -259940.82            0   -257583.71   -4356.6024
   16000    399.64476    -259946.4            0   -257588.89    1576.8479
   16100    406.64315   -259987.48            0   -257588.68   -1928.1409
   16200    397.83444   -259934.59            0   -257587.75    1919.0458
   16300    391.86998   -259899.86            0   -257588.21     7509.891
   16400    401.54238   -259954.73            0   -257586.03    501.13864
   16500     394.8246   -259916.33            0   -257587.25    5604.9923
   16600     395.9596   -259923.87            0    -257588.1   -1645.6135
   16700    398.79834   -259937.99            0   -257585.47    -3830.363
   16800    400.70211   -259947.79            0   -257584.04   -2086.9929
   16900    397.75286    -259932.6            0   -257586.25   -4179.1327
   17000    398.30682   -259933.44            0   -257583.82   -5496.6632
   17100    396.54614   -259918.64            0   -257579.41    6088.7909
   17200    395.96746   -259908.47            0   -257572.65   -1213.0217
   17300    397.39496   -259914.94            0    -257570.7    767.90311
   17400    403.92398   -259948.54            0   -257565.78    11174.122
   17500    401.97976   -259939.46            0   -257568.17   -12124.109
   17600     399.9767   -259929.12            0   -257569.65    6069.4285
   17700    404.16001   -259952.46            0   -257568.31   -10732.245
   17800    405.14669   -259964.98            0   -257575.01   -1543.1029
   17900    395.15954   -259906.05            0      -257575   -663.63536
   18000    402.39798    -259949.8            0   -257576.04    2881.2234
   18100    394.69859   -259905.84            0    -257577.5    7858.4768
   18200    394.53845   -259908.88            0   -257581.49   -6663.6647
   18300    398.60158      -259925            0   -257573.64   -929.75891
   18400    396.12688   -259913.01            0   -257576.25    11536.521
   18500    408.21738   -259987.14            0   -257579.06    525.31707
   18600    403.10143   -259963.14            0   -257585.23   -3865.0318
   18700    395.13078   -259913.92            0   -257583.04     10231.42
   18800    397.90775   -259931.95            0   -257584.69    2375.8306
   18900    400.99161   -259951.48            0   -257586.02   -2327.6424
   19000    398.41229   -259933.72            0   -257583.48    1658.9036
   19100    399.38384   -259937.75            0   -257581.78    879.78404
   19200    391.96326   -259886.01            0   -257573.81   -1045.6639
   19300    401.59697   -259938.24            0   -257569.21    6302.2158
   19400    406.31096    -259971.3            0   -257574.47    5537.4471
   19500    405.76134   -259970.07            0   -257576.47   -878.51488
   19600    394.85368   -259906.75            0    -257577.5    2726.7401
   19700    409.94298   -260000.84            0   -257582.58   -188.05437
   19800    398.27938   -259933.06            0    -257583.6   -1110.3964
   19900    403.54285   -259964.52            0   -257584.01   -5078.9016
   20000    396.19923   -259921.33            0   -257584.14    418.25931
   20100    393.07182   -259902.69            0   -257583.95   -2226.4414
   20200    397.84916   -259922.85            0   -257575.93   -7193.6549
   20300    399.96428   -259933.59            0    -257574.2    2289.4843
   20400     400.9609   -259943.33            0   -257578.05   -2620.8386
   20500    392.89839   -259896.62            0    -257578.9    8662.2882
   20600    406.39506   -259980.48            0   -257583.14    218.48807
   20700    402.58432    -259962.5            0   -257587.64    3760.7268
   20800    395.43709   -259925.07            0   -257592.38   -2460.7886
   20900    396.11431   -259932.36            0   -257595.67   -5276.2604
   21000    402.39731    -259970.1            0   -257596.35      2545.51
   21100    394.14326   -259916.69            0   -257591.63   -10441.259
   21200    408.83413   -260004.26            0   -257592.54   -448.92033
   21300    403.38386   -259976.94            0   -257597.37   -6693.2611
   21400    400.26984   -259966.27            0   -257605.07    5695.0945
   21500    394.75371   -259935.93            0   -257607.26    5872.2963
   21600    398.43966   -259954.16            0   -257603.75    2493.1277
   21700    416.11365   -260058.46            0    -257603.8   -852.11495
   21800    402.59506   -259978.61            0   -257603.69   -4529.8982
   21900    394.29046   -259930.93            0      -257605   -7079.7005
   22000    406.06681   -260002.24            0   -257606.84    455.07715
   22100    399.53092   -259963.79            0   -257606.95   -5981.6688
   22200    401.74612   -259979.31            0    -257609.4    1483.8674
   22300    407.41159   -260019.28            0   -257615.95    2474.0775
   22400    394.20506    -259941.9            0   -257616.48    1689.0413
   22500    398.75172   -259973.11            0   -257620.87    1456.6875
   22600    399.24168   -259972.54            0    -257617.4   -2130.8998
   22700    400.95322   -259983.81            0   -257618.57    -5467.775
   22800    400.39473   -259983.96            0   -257622.02   -8759.8291
   22900    401.77238    -259993.8            0   -257623.74   -9200.7659
   23000     400.0118    -259988.4            0   -257628.72   -26.942248
   23100    398.82755    -259978.7            0      -257626    4609.5854
   23200    401.93878   -259996.71            0   -257625.67     46.44924
   23300    397.63484   -259972.45            0   -257626.79   -9405.9659
   23400     397.7215    -259972.3            0   -257626.13   -1335.9574
   23500     405.3513   -260013.94            0   -257622.76    238.62505
   23600    387.64674   -259909.12            0   -257622.38    8701.3449
   23700     395.4709   -259951.43            0   -257618.54   -634.18795
   23800    406.82515   -260022.49            0   -257622.61    1202.5974
   23900    403.13947   -260001.91            0   -257623.78    4024.9705
   24000    394.28439   -259954.95            0   -257629.06    1175.8378
   24100    401.54108   -259998.66            0   -257629.96   -1938.5988
   24200    403.36341   -260009.02            0   -257629.57    3618.7715
   24300    404.79868   -260016.96            0   -257629.04   -4928.7295
   24400    398.38209   -259970.84            0   -257620.78   -11.550899
   24500    399.96077    -259978.1            0   -257618.72    1481.4952
   24600    396.68713   -259950.73            0   -257610.66   -629.65959
   24700    396.06326   -259947.83            0   -257611.44   -5163.0485
   24800    397.28368   -259949.81            0   -257606.22   -1893.3587
   24900      392.397   -259918.59            0   -257603.83    7103.8919
   25000    402.29681   -259980.14            0   -257606.98   -1362.8384
   25100    392.44721   -259920.87            0   -257605.82    9691.7377
   25200    405.69626   -259995.26            0   -257602.05   -2262.2228
   25300    389.02062   -259901.57            0   -257606.73   -3825.6558
   25400    397.81471   -259949.88            0   -257603.16   -1732.9439
   25500    399.63048   -259959.67            0   -257602.24    3521.9198
   25600    403.48783   -259983.81            0   -257603.62   -4151.8394
   25700    398.22481    -259954.6            0   -257605.46    1603.6287
   25800    401.56016   -259981.49            0   -257612.67    4345.5164
   25900    400.04294   -259974.71            0   -257614.84    3534.6748
   26000    403.05608   -259997.27            0   -257619.63    4287.2636
   26100    399.50428   -259979.58            0    -257622.9   -1117.1599
   26200    392.95836   -259942.35            0   -257624.28   -7477.6573
   26300    396.05621   -259959.97            0   -257623.63   -412.42933
   26400    400.83659   -259987.33            0   -257622.78   -3890.0181
   26500    393.00613   -259939.41            0   -257621.06   -5025.4658
   26600    397.94129   -259964.92            0   -257617.46    1044.0882
   26700    398.04537   -259962.06            0   -257613.98     13487.83
   26800    399.20709   -259967.87            0   -257612.94   -3223.3983
   26900    401.00068   -259974.62            0    -257609.1   -481.13355
   27000     396.2549   -259953.87            0   -257616.35   -3733.0712
   27100    401.78116   -259985.37            0   -257615.25    3194.0261
   27200    404.01741   -259998.02            0   -257614.71   -5684.3854
   27300    393.93083   -259934.24            0   -257610.43   -8208.3315
   27400    393.41398   -259930.46            0    -257609.7    2216.9964
   27500    400.63363    -259968.6            0   -257605.25    2032.8818
   27600    399.06685   -259957.14            0   -257603.04   -1556.6629
   27700    401.42476   -259967.22            0    -257599.2   -1556.8644
   27800    404.50175   -259990.08            0   -257603.92   -1781.4884
   27900    397.73626   -259948.98            0   -257602.73    8365.5298
   28000     401.3096   -259977.84            0   -257610.51    4253.6236
   28100    397.04347   -259948.44            0   -257606.27    2241.6644
   28200    394.52025   -259936.36            0   -257609.07     581.8026
   28300    397.47257   -259953.54            0   -257608.84    244.75679
   28400    398.63631   -259960.97            0    -257609.4    6695.9088
   28500    405.24538   -260000.71            0   -257610.16   -5723.5859
   28600    408.81742   -260024.08            0   -257612.46    2545.1082
   28700    398.45439   -259959.31            0   -257608.82   -11107.978
   28800    400.05378   -259973.47            0   -257613.54   -4586.4239
   28900    394.15841   -259935.11            0   -257609.96    2043.8106
   29000    398.22437    -259954.3            0   -257605.17    6055.3078
   29100    393.05758   -259921.89            0   -257603.24    4698.6101
   29200    393.95076   -259925.63            0   -257601.71   -10345.545
   29300    401.53028   -259969.41            0   -257600.78   -5831.2635
   29400    389.47114   -259895.38            0   -257597.88   -6550.3068
   29500    398.48495    -259946.7            0   -257596.03   -9235.3784
   29600    403.51007   -259974.59            0   -257594.28   -3299.1034
   29700    397.88234   -259937.09            0   -257589.98   -7737.5371
   29800    390.53053    -259898.4            0   -257594.65   -462.06284
   29900    399.69141   -259946.51            0   -257588.72    6405.2469
   30000    393.04328   -259904.66            0   -257586.09   -2644.6158
   30100    397.37782   -259932.46            0   -257588.32    847.74359
   30200    391.35344   -259894.29            0   -257585.69   -7457.4968
   30300    400.54717   -259946.33            0   -257583.49   -1924.2287
   30400    404.21888   -259967.59            0    -257583.1    6701.9356
   30500    401.58862   -259945.25            0   -257576.27    6060.3248
   30600    400.63338   -259940.74            0   -257577.39   -8738.4988
   30700    409.03304   -259994.25            0   -257581.35    1650.7041
   30800    403.44669   -259962.69            0   -257582.75    1466.2073
   30900    405.08485   -259971.57            0   -257581.96   -5625.5913
   31000    414.29194   -260030.47            0   -257586.55   -3761.7646
   31100    401.92969   -259955.03            0   -257584.04   -2139.8531
   31200    399.42769   -259939.48            0   -257583.24   -8214.1739
   31300    398.69195   -259933.62            0   -257581.72    1892.3345
   31400    406.94562   -259979.24            0   -257578.66   -3927.0501
   31500    390.71411   -259881.04            0   -257576.21     200.0336
   31600    405.89376   -259965.98            0    -257571.6   -177.37499
   31700    402.82526    -259945.8            0   -257569.52    165.67392
   31800    398.36269   -259917.69            0   -257567.74    8838.2917
   31900     409.0944   -259980.24            0   -257566.98    5302.1815
   32000    405.91163   -259966.27            0   -257571.78    3896.3112
   32100    396.73489   -259913.22            0   -257572.87    773.73354
   32200    409.26277   -259990.75            0    -257576.5   -2975.5761
   32300    391.10628   -259885.49            0   -257578.35   -4394.5209
   32400    394.69509   -259902.95            0   -257574.64   -9488.3554
   32500     402.6426   -259946.01            0   -257570.81   -1845.7448
   32600     395.3635   -259901.17            0   -257568.91    -1024.265
   32700    396.76211   -259911.44            0   -257570.93    5700.5422
   32800    404.83591   -259960.57            0   -257572.43   -4499.5266
   32900    400.92419   -259938.44            0   -257573.38     11424.62
   33000    397.87813   -259922.48            0   -257575.38   -1673.2374
   33100    391.50228   -259886.72            0   -257577.24   -6694.8534
   33200    395.62154    -259905.8            0   -257572.02   -1969.6065
   33300    393.81482   -259902.78            0   -257579.65   -753.13055
   33400    393.85603   -259894.61            0   -257571.24   -3586.6141
   33500    402.45453   -259949.08            0   -257574.99    492.73194
   33600    391.80285      -259889            0   -257577.75   -1247.1669
   33700    397.10821   -259921.06            0   -257578.51    1554.2764
   33800    398.34399   -259932.36            0   -257582.52    -6868.186
   33900    401.40571   -259952.91            0   -257585.01    1277.0473
   34000    404.67843   -259971.65            0   -257584.44   -6428.2831
   34100    413.13729   -260024.52            0   -257587.41      1553.05
   34200    398.00089    -259939.7            0   -257591.89     810.0925
   34300    403.18316   -259970.72            0   -257592.33   -297.62758
   34400    410.67665    -260015.4            0   -257592.81   -1085.7101
   34500    400.69527   -259960.57            0   -257596.86   -7511.5457
   34600    392.02858    -259907.3            0   -257594.72    4190.1451
   34700    401.15927   -259960.06            0   -257593.61    3142.8877
   34800    398.75587   -259948.13            0   -257595.86   -89.727113
   34900    400.69273    -259961.1            0    -257597.4    -8526.432
   35000    412.59698   -260036.94            0   -257603.02   -349.70447
   35100    403.66884   -259984.65            0    -257603.4   -1719.9443
   35200    404.56726   -259993.07            0   -257606.51   -3508.2772
   35300    387.52819   -259888.78            0   -257602.74   -4760.2885
   35400    405.96221   -260003.59            0   -257608.81   -876.36004
   35500    398.22163   -259955.89            0   -257606.77   -4388.4361
   35600    402.73598   -259983.96            0   -257608.21   -7679.8745
   35700    391.15498   -259919.55            0   -257612.12   -4552.7862
   35800    397.15487   -259956.57            0   -257613.74    1152.6129
   35900    390.51833   -259915.16            0   -257611.49   -67.686567
   36000    400.96989    -259971.6            0   -257606.27    4692.1449
   36100    407.08993   -260006.48            0   -257605.04    4795.8699
   36200    398.16042    -259957.1            0   -257608.34   -3596.1462
   36300    404.52486   -259996.85            0   -257610.55    8637.9941
   36400    408.08264   -260024.03            0   -257616.74   -2905.2851
   36500    395.83327    -259953.4            0   -257618.37    614.45562
   36600    391.13599   -259923.15            0   -257615.83     7682.375
   36700    405.02334   -260005.94            0    -257616.7    -1406.782
   36800    404.89754   -260002.07            0   -257613.57    3921.2864
   36900     403.4516   -259992.51            0   -257612.54    11009.205
   37000    395.21872   -259941.66            0   -257610.26    277.06569
   37100    404.57103   -259995.97            0    -257609.4   -324.82926
   37200    392.52433   -259922.84            0   -257607.33   -1514.8619
   37300    405.06201   -259996.09            0   -257606.61   -3394.7217
   37400    400.99112   -259970.98            0   -257605.52   -5906.8351
   37500    398.12373   -259950.84            0    -257602.3   -8578.9502
   37600    398.14592   -259953.09            0   -257604.41   -3796.5618
   37700    401.19827   -259969.65            0   -257602.97     6444.135
   37800    402.21881   -259977.74            0   -257605.04   -6150.8746
   37900    396.48278   -259943.22            0   -257604.36   -2789.7728
   38000    391.34612   -259911.37            0   -257602.81    4173.5784
   38100    395.28408   -259937.21            0   -257605.42   -2155.9668
   38200    396.33109    -259944.5            0   -257606.53   -8896.5666
   38300    405.17423   -259996.41            0   -257606.28    4745.2297
   38400    404.80356   -259992.91            0   -257604.97    8839.9477
   38500    395.65667   -259941.36            0   -257607.37    2700.5573
   38600    395.42779   -259941.03            0    -257608.4   -11000.276
   38700    406.94807   -260008.97            0   -257608.37    2150.7298
   38800    406.39409   -260006.71            0   -257609.38    3898.9931
   38900    390.96786   -259914.34            0   -257608.02    -3495.633
   39000    395.20676   -259935.28            0   -257603.95   -1671.0381
   39100    401.67461   -259981.15            0   -257611.66   -1045.3126
   39200    400.74596   -259979.43            0   -257615.42   -1026.0419
   39300    405.72018   -260014.89            0   -257621.54    635.42388
   39400    400.35256   -259980.71            0   -257619.02   -92.102722
   39500    396.03723   -259956.92            0   -257620.69   -1560.2568
   39600    404.41554   -260005.82            0   -257620.16    1443.3285
   39700    403.78579   -260009.31            0   -257627.37    5753.8278
   39800    396.55756   -259969.58            0   -257630.28    6081.0583
   39900    396.30264   -259963.31            0   -257625.52   -825.48573
   40000    393.25123      -259941            0    -257621.2   -2106.2612
   40100      403.608   -259999.76            0   -257618.86    -2655.802
   40200    402.97754   -259999.01            0   -257621.84    3535.0851
   40300    402.13421   -259996.64            0   -257624.44   -11199.255
   40400    403.41154    -260009.1            0   -257629.36   -1322.5767
   40500    403.25987   -260008.71            0   -257629.87    2867.4071
   40600    397.11047   -259974.95            0   -257632.39    9125.5119
   40700    401.18803   -259992.87            0   -257626.25    547.86086
   40800    398.79447   -259971.14            0   -257618.64    3592.6958
   40900    398.54551   -259959.26            0   -257608.23   -5313.5843
   41000    399.22982   -259962.11            0   -257607.04    4963.0887
   41100    411.60666    -260042.2            0   -257614.12   -6343.2125
   41200    407.33258   -260020.99            0   -257618.13   -4640.6869
   41300    403.58086   -260006.56            0   -257625.83   -1329.1042
   41400    400.24016   -259995.59            0   -257634.56    12488.609
   41500    402.19328   -260015.16            0   -257642.61   -8024.1177
   41600    406.37746   -260040.79            0   -257643.56    3386.5255
   41700    401.06708   -260011.19            0   -257645.28    2178.9167
   41800    403.02671   -260022.24            0   -257644.78     6394.546
   41900    399.96713   -260005.53            0   -257646.11   -6446.9529
   42000     400.9244   -260013.96            0    -257648.9   -271.89552
   42100    392.11399    -259967.1            0   -257654.01   -5899.9557
   42200    396.52401   -259991.95            0   -257652.84    2079.6438
   42300    407.34125   -260056.07            0   -257653.16    1272.5253
   42400    397.82347   -260002.12            0   -257655.35   -11584.319
   42500    400.74039   -260014.73            0   -257650.75    135.09146
   42600    392.33019   -259962.43            0   -257648.06   -1942.4037
   42700     396.8522    -259984.6            0   -257643.56    221.04722
   42800    390.39322   -259941.81            0   -257638.87   -8657.1451
   42900    398.85128   -259989.63            0   -257636.79    803.05684
   43000    406.28136   -260036.71            0   -257640.05    1844.6866
   43100    400.48669   -260000.69            0   -257638.21   -7354.6579
   43200    404.51067   -260021.68            0   -257635.46    4737.9326
   43300    404.90889   -260032.46            0    -257643.9      411.047
   43400    408.62163   -260059.38            0   -257648.91    6473.4055
   43500    414.23247   -260099.18            0   -257655.61    4754.5171
   43600     400.2743   -260022.72            0   -257661.49   -3043.0423
   43700    401.18585    -260028.9            0   -257662.29    498.48556
   43800     406.2094   -260065.48            0   -257669.24    3498.3828
   43900    402.86523    -260044.1            0   -257667.59   -2020.3692
   44000    396.89489   -260006.72            0   -257665.43   -427.36531
   44100    392.18959   -259974.13            0   -257660.59    -4568.818
   44200     399.9398   -260017.64            0   -257658.39   -4115.5833
   44300    402.36789    -260026.1            0   -257652.53   -7439.6459
   44400    401.25994   -260017.81            0   -257650.77    5749.5794
   44500    399.20529   -260000.94            0   -257646.01    927.07275
   44600    399.62717   -260001.14            0   -257643.73    3343.8373
   44700     404.3639   -260031.27            0   -257645.92     -3760.15
   44800    396.79651   -259986.39            0   -257645.68   -5011.3638
   44900    404.84028   -260033.64            0   -257645.48   -3405.2908
   45000    392.29464   -259957.51            0   -257643.35   -697.14252
   45100    394.74506   -259969.16            0   -257640.55     6470.739
   45200    394.04643   -259961.57            0   -257637.08    1085.9728
   45300    402.27697   -260008.81            0   -257635.77   -4780.7755
   45400    394.89377      -259964            0   -257634.51     -2778.27
   45500    402.07329   -260010.67            0   -257638.83   -3860.7465
   45600    404.05101   -260021.67            0   -257638.17   -746.83061
   45700    391.11193   -259948.09            0   -257640.92    -8868.295
   45800    394.28207      -259963            0   -257637.12   -1582.9877
   45900    401.11149   -260003.91            0   -257637.75   -3143.5443
   46000    401.60338   -260007.59            0   -257638.52    5979.6905
   46100    396.92896   -259975.26            0   -257633.77    1326.0041
   46200    401.11822   -260000.96            0   -257634.76    6412.8681
   46300    394.58068   -259962.73            0   -257635.08    4259.2973
   46400    409.12939   -260047.46            0   -257633.99   -173.54684
   46500    395.93002   -259970.34            0   -257634.74   -1423.8035
   46600    396.71079   -259978.59            0   -257638.38   -2967.6114
   46700    399.77015   -259999.63            0   -257641.37    3699.4045
   46800    400.68776   -260000.81            0   -257637.14   -3872.8612
   46900    402.24121   -260006.34            0   -257633.51   -4752.7546
   47000    407.90783   -260044.55            0   -257638.29    494.41737
   47100    405.72947   -260033.46            0   -257640.05     3295.167
   47200    398.07922   -259993.09            0   -257644.81   -3998.9576
   47300    402.03218   -260015.01            0   -257643.42   -7773.5254
   47400    397.81249   -259988.56            0   -257641.86   -9463.6738
   47500    390.95985   -259943.91            0   -257637.63   -4184.7269
   47600    399.60603   -259999.82            0   -257642.53    -450.2059
   47700    397.92493   -259988.63            0   -257641.27   -9064.4285
   47800    395.47427   -259976.72            0   -257643.81   -2810.1154
   47900    401.99244   -260018.31            0   -257646.95    2805.4115
   48000    403.80173   -260036.88            0   -257654.84    2863.9164
   48100     405.1426   -260045.69            0   -257655.75    -4316.616
   48200    395.80078   -259992.47            0   -257657.63   -6730.9226
   48300    398.32703   -260004.77            0   -257655.03   -941.44153
   48400    400.73147   -260016.86            0   -257652.94   -6797.0958
   48500    402.18884   -260021.15            0   -257648.63    7360.4003
   48600    399.53732   -260004.06            0   -257647.18    730.92948
   48700    401.07607   -260003.23            0   -257637.27   -5554.9391
   48800    406.50091   -260033.77            0   -257635.81    12257.003
   48900    404.81009   -260022.38            0    -257634.4    2992.2731
   49000    392.30782   -259945.55            0   -257631.32    -2713.976
   49100    406.04567   -260024.72            0   -257629.45    1553.0914
   49200    402.71732   -260006.71            0   -257631.07   -5037.5507
   49300    411.09463   -260058.17            0   -257633.11    1435.6861
   49400    400.69092   -259999.46            0   -257635.77   -603.88905
   49500    398.66076   -259982.68            0   -257630.98   -7547.2107
   49600    404.23076   -260015.82            0   -257631.25    4870.4855
   49700      397.813   -259981.37            0   -257634.66   -2419.0755
   49800    403.25964   -260014.06            0   -257635.22   -1132.8542
   49900    394.99822   -259965.54            0   -257635.44    -1894.808
   50000    399.32345   -259988.21            0   -257632.59   -3336.7987
Loop time of 8743.9 on 1 procs for 50000 steps with 1980 atoms

Performance: 0.124 ns/day, 194.309 hours/ns, 5.718 timesteps/s
99.8% CPU use with 1 MPI tasks x no OpenMP threads

MPI task timing breakdown:
Section |  min time  |  avg time  |  max time  |%varavg| %total
---------------------------------------------------------------
Pair    | 5666.4     | 5666.4     | 5666.4     |   0.0 | 64.80
Neigh   | 375.45     | 375.45     | 375.45     |   0.0 |  4.29
Comm    | 4.1742     | 4.1742     | 4.1742     |   0.0 |  0.05
Output  | 1.6973     | 1.6973     | 1.6973     |   0.0 |  0.02
Modify  | 2695.7     | 2695.7     | 2695.7     |   0.0 | 30.83
Other   |            | 0.4455     |            |       |  0.01

Nlocal:    1980 ave 1980 max 1980 min
Histogram: 1 0 0 0 0 0 0 0 0 0
Nghost:    10143 ave 10143 max 10143 min
Histogram: 1 0 0 0 0 0 0 0 0 0
Neighs:    844952 ave 844952 max 844952 min
Histogram: 1 0 0 0 0 0 0 0 0 0

Total # of neighbors = 844952
Ave neighs/atom = 426.743
Neighbor list builds = 5000
Dangerous builds not checked

minimize 0.0 1.0e-1 1000 10000
WARNING: Using 'neigh_modify every 1 delay 0 check yes' setting during minimization (../min.cpp:190)
Per MPI rank memory allocation (min/avg/max) = 253.3 | 253.3 | 253.3 Mbytes
Step Temp E_pair E_mol TotEng Press
   50000    399.32345   -259988.21            0   -257632.59   -3336.7946
   50100    399.32345   -262165.94            0   -259810.32    2973.9393
   50200    399.32345   -262246.31            0   -259890.69    2861.8076
   50300    399.32345   -262291.32            0    -259935.7    2200.7121
   50400    399.32345   -262308.63            0   -259953.01    320.61704
   50500    399.32345   -262323.06            0   -259967.45    2151.3026
   50600    399.32345   -262328.41            0   -259972.79    2157.0325
   50700    399.32345   -262335.13            0   -259979.51    2067.3157
   50800    399.32345   -262354.04            0   -259998.42    1628.8796
   50900    399.32345   -262364.39            0   -260008.77    1914.2597
   51000    399.32345   -262368.05            0   -260012.43    1706.3744
Loop time of 1452.1 on 1 procs for 1000 steps with 1980 atoms

99.9% CPU use with 1 MPI tasks x no OpenMP threads

Minimization stats:
  Stopping criterion = max iterations
  Energy initial, next-to-last, final =
        -259988.207958     -262367.994251      -262368.04787
  Force two-norm initial, final = 2849.11 33.6509
  Force max component initial, final = 209.21 9.79699
  Final line search alpha, max atom move = 0.00012753 0.00124941
  Iterations, force evaluations = 1000 6757

MPI task timing breakdown:
Section |  min time  |  avg time  |  max time  |%varavg| %total
---------------------------------------------------------------
Pair    | 796.19     | 796.19     | 796.19     |   0.0 | 54.83
Neigh   | 0.071653   | 0.071653   | 0.071653   |   0.0 |  0.00
Comm    | 0.46534    | 0.46534    | 0.46534    |   0.0 |  0.03
Output  | 0.034033   | 0.034033   | 0.034033   |   0.0 |  0.00
Modify  | 655.08     | 655.08     | 655.08     |   0.0 | 45.11
Other   |            | 0.2558     |            |       |  0.02

Nlocal:    1980 ave 1980 max 1980 min
Histogram: 1 0 0 0 0 0 0 0 0 0
Nghost:    10124 ave 10124 max 10124 min
Histogram: 1 0 0 0 0 0 0 0 0 0
Neighs:    845457 ave 845457 max 845457 min
Histogram: 1 0 0 0 0 0 0 0 0 0

Total # of neighbors = 845457
Ave neighs/atom = 426.998
Neighbor list builds = 1
Dangerous builds not checked


Please see the log.cite file for references relevant to this simulation

Total wall time: 2:49:56
