660
frame: 0 of 221, timestep: 0.0125 ps
 C      13.48830000       2.25827000       2.49697000        0
 C      12.15510000       2.83515000       2.98993000        1
 C      14.70160000       3.37793000       4.38258000        2
 C      13.38450000       3.96959000       4.90065000        3
 C      13.13420000       5.32786000       4.23309000        4
 C      13.05860000       5.17169000       2.70891000        5
 C      14.37920000       4.56372000       2.22021000        6
 C      14.64670000       3.19586000       2.86042000        7
 C      11.92090000       4.20826000       2.34732000        8
 C      12.24320000       3.02239000       4.50967000        9
 H      15.53900000       4.03246000       4.63018000       10
 H      14.87750000       2.42092000       4.87671000       11
 H      13.93490000       6.02797000       4.47721000       12
 H      12.20430000       5.74646000       4.62179000       13
 H      14.33540000       4.44524000       1.13542000       14
 H      15.19730000       5.24091000       2.47483000       15
 H      10.96270000       4.60078000       2.69176000       16
 H      11.86590000       4.11835000       1.26109000       17
 H      13.63570000       1.27508000       2.94705000       18
 H      13.47000000       2.12267000       1.41427000       19
 H      12.41260000       2.05031000       4.97775000       20
 H      11.29940000       3.43572000       4.87160000       21
 C      11.02730000       1.89760000       2.58440000       22
 C      10.81860000       1.62536000       1.23392000       23
 C      10.17910000       1.28715000       3.50048000       24
 C       9.16468000       0.44010000       3.08536000       25
 C       9.80802000       0.78105000       0.81540000       26
 C       8.97244000       0.18158000       1.74162000       27
 H      10.29260000       1.46017000       4.55840000       28
 H      11.45330000       2.07739000       0.48625000       29
 H       8.52152000      -0.01950000       3.82213000       30
 H       9.67250000       0.59048000      -0.23950000       31
 H       8.18148000      -0.47880000       1.41843000       32
 C      13.48590000       4.16660000       6.40607000       33
 C      12.63250000       3.54995000       7.31309000       34
 C      14.47580000       5.00184000       6.91981000       35
 C      14.60870000       5.21278000       8.27893000       36
 C      12.76210000       3.75857000       8.67639000       37
 C      13.74990000       4.59038000       9.16803000       38
 H      15.16170000       5.50228000       6.25255000       39
 H      11.84780000       2.89312000       6.97415000       40
 H      15.38700000       5.86662000       8.64535000       41
 H      12.08280000       3.26456000       9.35636000       42
 H      13.85060000       4.75272000      10.23090000       43
 C      15.95370000       2.57788000       2.38571000       44
 C      16.80010000       3.19600000       1.47310000       45
 C      16.33780000       1.33211000       2.87764000       46
 C      17.51450000       0.72895000       2.47646000       47
 C      17.98070000       2.59501000       1.06816000       48
 C      18.34540000       1.35881000       1.56635000       49
 H      15.71150000       0.81451000       3.58900000       50
 H      16.55530000       4.16054000       1.05865000       51
 H      17.78360000      -0.23790000       2.87666000       52
 H      18.61770000       3.10105000       0.35691000       53
 H      19.26570000       0.89054000       1.25024000       54
 C      12.77760000       6.52997000       2.08321000       55
 C      13.63130000       7.13841000       1.17088000       56
 C      11.61320000       7.21271000       2.42880000       57
 C      11.31350000       8.44858000       1.88829000       58
 C      13.33470000       8.37719000       0.62645000       59
 C      12.17530000       9.03998000       0.98111000       60
 H      10.92000000       6.77834000       3.13384000       61
 H      14.54650000       6.65765000       0.86568000       62
 H      10.40220000       8.95220000       2.17723000       63
 H      14.01880000       8.82427000      -0.08060000       64
 H      11.94450000      10.00580000       0.55657000       65
 C      16.63020000      13.57220000       2.68339000       66
 C      15.72730000      14.75020000       3.07113000       67
 C      14.62280000      12.11240000       2.33603000       68
 C      13.69330000      13.27110000       2.71906000       69
 C      13.45880000      13.26140000       4.23500000       70
 C      14.78890000      13.40510000       4.98546000       71
 C      15.70370000      12.24550000       4.57203000       72
 C      15.96840000      12.24090000       3.06127000       73
 C      15.46620000      14.72120000       4.58248000       74
 C      14.38530000      14.58820000       2.34645000       75
 H      14.16970000      11.15500000       2.59899000       76
 H      14.76840000      12.11900000       1.25449000       77
 H      12.97840000      12.33090000       4.54234000       78
 H      12.78320000      14.07870000       4.49311000       79
 H      16.65580000      12.33940000       5.09872000       80
 H      15.22980000      11.30230000       4.85224000       81
 H      14.83770000      15.57260000       4.84889000       82
 H      16.40220000      14.82040000       5.13480000       83
 H      16.82270000      13.61310000       1.60997000       84
 H      17.59340000      13.64450000       3.19118000       85
 H      14.55980000      14.60490000       1.26848000       86
 H      13.73280000      15.42090000       2.61760000       87
 C      16.42780000      16.05260000       2.71256000       88
 C      17.66140000      16.34550000       3.29050000       89
 C      15.89770000      16.98240000       1.82615000       90
 C      16.57120000      18.15590000       1.52918000       91
 C      18.33670000      17.51470000       2.99712000       92
 C      17.79380000      18.42970000       2.11193000       93
 H      14.94690000      16.81000000       1.34836000       94
 H      18.11190000      15.65220000       3.98526000       95
 H      16.13280000      18.85920000       0.83576000       96
 H      19.29180000      17.71220000       3.46230000       97
 H      18.31860000      19.34460000       1.88016000       98
 C      12.35950000      13.09440000       2.00840000       99
 C      11.83950000      14.03080000       1.12292000      100
 C      11.60800000      11.94480000       2.24351000      101
 C      10.39100000      11.73830000       1.62247000      102
 C      10.61990000      13.82780000       0.49810000      103
 C       9.88829000      12.68150000       0.74330000      104
 H      11.97250000      11.18970000       2.92405000      105
 H      12.37610000      14.93930000       0.90202000      106
 H       9.83265000      10.83600000       1.82630000      107
 H      10.24240000      14.57470000      -0.18550000      108
 H       8.93761000      12.52360000       0.25598000      109
 C      16.87540000      11.09630000       2.63384000      110
 C      17.39820000      10.16670000       3.52478000      111
 C      17.21020000      10.95680000       1.28852000      112
 C      18.03110000       9.93502000       0.85097000      113
 C      18.22150000       9.14069000       3.09052000      114
 C      18.54330000       9.01813000       1.75230000      115
 H      16.82700000      11.65590000       0.56007000      116
 H      17.17360000      10.22390000       4.57753000      117
 H      18.27190000       9.85467000      -0.19930000      118
 H      18.61250000       8.43348000       3.80795000      119
 H      19.18530000       8.21832000       1.41422000      120
 C      14.51580000      13.42440000       6.48227000      121
 C      15.04470000      12.48960000       7.36410000      122
 C      13.69840000      14.41970000       7.01394000      123
 C      13.42030000      14.47970000       8.36613000      124
 C      14.76870000      12.54600000       8.72040000      125
 C      13.95550000      13.54020000       9.23003000      126
 H      13.26540000      15.16770000       6.36649000      127
 H      15.68400000      11.69690000       7.01048000      128
 H      12.78230000      15.26430000       8.74689000      129
 H      15.19510000      11.80440000       9.38065000      130
 H      13.74040000      13.58370000      10.28740000      131
 C      17.07310000      14.49970000      15.93760000      132
 C      16.75570000      15.93410000      15.49640000      133
 C      16.79990000      13.68560000      13.58310000      134
 C      16.47900000      15.10930000      13.11050000      135
 C      14.96900000      15.35760000      13.21750000      136
 C      14.49710000      15.18260000      14.66660000      137
 C      14.84470000      13.75870000      15.11850000      138
 C      16.35230000      13.48850000      15.03700000      139
 C      15.24210000      16.17160000      15.57220000      140
 C      17.19730000      16.09860000      14.03680000      141
 H      16.29400000      12.95050000      12.95490000      142
 H      17.87340000      13.51480000      13.48630000      143
 H      14.42030000      14.66160000      12.58080000      144
 H      14.75090000      16.36640000      12.86290000      145
 H      14.51540000      13.62380000      16.15110000      146
 H      14.32110000      13.04550000      14.47840000      147
 H      15.03020000      17.19940000      15.27280000      148
 H      14.88620000      16.04970000      16.59670000      149
 H      18.15300000      14.34800000      15.89590000      150
 H      16.76010000      14.33850000      16.97060000      151
 H      18.27420000      15.92890000      13.97060000      152
 H      16.97330000      17.11650000      13.71080000      153
 C      17.45920000      16.90860000      16.42960000      154
 C      17.16470000      16.88260000      17.79120000      155
 C      18.39470000      17.83890000      15.99320000      156
 C      19.01060000      18.70730000      16.87950000      157
 C      17.77660000      17.74690000      18.67890000      158
 C      18.70610000      18.66730000      18.22670000      159
 H      18.66270000      17.90540000      14.95110000      160
 H      16.44390000      16.17640000      18.17580000      161
 H      19.73400000      19.41960000      16.50920000      162
 H      17.52610000      17.70130000      19.72890000      163
 H      19.18640000      19.34440000      18.91730000      164
 C      16.90580000      15.25920000      11.65770000      165
 C      17.84340000      16.19280000      11.23280000      166
 C      16.34080000      14.42940000      10.69140000      167
 C      16.69550000      14.52660000       9.35946000      168
 C      18.20200000      16.29370000       9.89853000      169
 C      17.63120000      15.46220000       8.95392000      170
 H      15.60770000      13.68900000      10.97540000      171
 H      18.31410000      16.86160000      11.93510000      172
 H      16.23870000      13.86810000       8.63469000      173
 H      18.93420000      17.02990000       9.59941000      174
 H      17.91100000      15.54120000       7.91389000      175
 C      16.71490000      12.07940000      15.48260000      176
 C      15.77370000      11.15200000      15.91320000      177
 C      18.04990000      11.68080000      15.46610000      178
 C      18.42970000      10.41270000      15.86220000      179
 C      16.15000000       9.87962000      16.31120000      180
 C      17.47890000       9.50179000      16.28860000      181
 H      18.81590000      12.36800000      15.13880000      182
 H      14.72610000      11.40360000      15.94710000      183
 H      19.47350000      10.13470000      15.83780000      184
 H      15.39440000       9.18099000      16.64110000      185
 H      17.77190000       8.50985000      16.59910000      186
 C      13.00420000      15.46760000      14.74130000      187
 C      12.07200000      14.53230000      15.17420000      188
 C      12.52910000      16.72120000      14.36160000      189
 C      11.18280000      17.02840000      14.41110000      190
 C      10.72140000      14.83600000      15.22560000      191
 C      10.26810000      16.08460000      14.84480000      192
 H      13.21700000      17.47970000      14.01860000      193
 H      12.38080000      13.54610000      15.48070000      194
 H      10.84640000      18.00990000      14.10950000      195
 H      10.02110000      14.08710000      15.56690000      196
 H       9.21515000      16.32090000      14.88490000      197
 C       5.11336000      15.86050000      13.19180000      198
 C       4.98159000      15.26160000      11.78570000      199
 C       7.46510000      16.57240000      12.69820000      200
 C       7.36451000      15.98310000      11.28540000      201
 C       7.79758000      14.51170000      11.31100000      202
 C       6.90630000      13.70570000      12.26450000      203
 C       7.01241000      14.32540000      13.66350000      204
 C       6.56939000      15.79380000      13.67010000      205
 C       5.44583000      13.79960000      11.80480000      206
 C       5.89840000      16.04670000      10.83930000      207
 H       8.49481000      16.53230000      13.05740000      208
 H       7.17137000      17.62290000      12.66450000      209
 H       8.83508000      14.42340000      11.63780000      210
 H       7.73836000      14.10840000      10.29860000      211
 H       6.37885000      13.76060000      14.35080000      212
 H       8.04965000      14.26610000      14.00010000      213
 H       5.33161000      13.37960000      10.80410000      214
 H       4.82416000      13.20920000      12.48000000      215
 H       4.76456000      16.89430000      13.16950000      216
 H       4.48393000      15.31840000      13.89950000      217
 H       5.57824000      17.09060000      10.82010000      218
 H       5.81469000      15.62670000       9.83471000      219
 C       3.52239000      15.31430000      11.35750000      220
 C       2.56357000      14.64850000      12.11820000      221
 C       3.08448000      16.00070000      10.23130000      222
 C       1.74486000      16.02140000       9.87928000      223
 C       1.22629000      14.66640000      11.77080000      224
 C       0.80776000      15.35520000      10.64570000      225
 H       3.78056000      16.53430000       9.60455000      226
 H       2.85772000      14.10180000      13.00190000      227
 H       1.43556000      16.56420000       8.99756000      228
 H       0.50756000      14.13980000      12.38200000      229
 H      -0.23650000      15.37150000      10.37090000      230
 C       8.28837000      16.75720000      10.35670000      231
 C       7.83894000      17.44100000       9.23342000      232
 C       9.65443000      16.79450000      10.62860000      233
 C      10.53390000      17.48370000       9.81561000      234
 C       8.71700000      18.13330000       8.41565000      235
 C      10.06880000      18.15930000       8.70084000      236
 H      10.04900000      16.27760000      11.49070000      237
 H       6.79294000      17.44770000       8.97292000      238
 H      11.58770000      17.49310000      10.05410000      239
 H       8.33670000      18.65530000       7.54927000      240
 H      10.75300000      18.69910000       8.06308000      241
 C       6.66796000      16.42420000      15.05150000      242
 C       7.11162000      15.73360000      16.17280000      243
 C       6.29949000      17.75720000      15.22100000      244
 C       6.37002000      18.37430000      16.45530000      245
 C       7.18395000      16.34830000      17.41210000      246
 C       6.81393000      17.67120000      17.56170000      247
 H       5.94886000      18.33340000      14.37760000      248
 H       7.41031000      14.70020000      16.10250000      249
 H       6.07665000      19.40960000      16.55350000      250
 H       7.53303000      15.78440000      18.26530000      251
 H       6.87025000      18.15000000      18.52800000      252
 C       7.34244000      12.24810000      12.24010000      253
 C       7.78395000      11.56730000      13.36830000      254
 C       7.30450000      11.54450000      11.03800000      255
 C       7.69046000      10.21980000      10.96440000      256
 C       8.17172000      10.23920000      13.29910000      257
 C       8.12779000       9.55727000      12.09810000      258
 H       6.96813000      12.03280000      10.13550000      259
 H       7.83447000      12.05980000      14.32590000      260
 H       7.64946000       9.70243000      10.01670000      261
 H       8.51037000       9.73729000      14.19410000      262
 H       8.43032000       8.52199000      12.04450000      263
 C       2.28415000       5.69655000       4.37910000      264
 C       3.23457000       5.04808000       5.39365000      265
 C       4.12699000       5.81097000       2.68439000      266
 C       5.10187000       5.16390000       3.67642000      267
 C       5.78160000       6.25477000       4.51379000      268
 C       4.73574000       7.07027000       5.28472000      269
 C       3.76573000       7.69124000       4.27183000      270
 C       3.05919000       6.62054000       3.43108000      271
 C       3.93868000       6.14051000       6.20853000      272
 C       4.29989000       4.26015000       4.62118000      273
 H       4.65997000       6.47453000       2.00132000      274
 H       3.66274000       5.02741000       2.08315000      275
 H       6.35325000       6.92869000       3.87346000      276
 H       6.48464000       5.78421000       5.20319000      277
 H       3.01420000       8.27242000       4.81048000      278
 H       4.32348000       8.35396000       3.60666000      279
 H       4.59862000       5.66743000       6.93767000      280
 H       3.21008000       6.73375000       6.76370000      281
 H       1.77686000       4.91019000       3.81762000      282
 H       1.51679000       6.27939000       4.89136000      283
 H       3.80895000       3.48048000       4.03481000      284
 H       4.98452000       3.79593000       5.33425000      285
 C       2.42910000       4.16598000       6.33625000      286
 C       1.42008000       4.73653000       7.10943000      287
 C       2.64672000       2.80015000       6.47196000      288
 C       1.88838000       2.03577000       7.34349000      289
 C       0.66121000       3.97787000       7.97999000      290
 C       0.89166000       2.61871000       8.10254000      291
 H       3.41351000       2.30369000       5.89961000      292
 H       1.21536000       5.79438000       7.03709000      293
 H       2.08181000       0.97586000       7.42662000      294
 H      -0.11400000       4.45073000       8.56560000      295
 H       0.30072000       2.02246000       8.78185000      296
 C       6.16395000       4.39750000       2.90180000      297
 C       6.37200000       3.03093000       3.04499000      298
 C       6.97742000       5.08103000       2.00040000      299
 C       7.95567000       4.42991000       1.27348000      300
 C       7.35152000       2.37414000       2.31829000      301
 C       8.14906000       3.06830000       1.42864000      302
 H       6.85186000       6.14389000       1.85635000      303
 H       5.77320000       2.44981000       3.72743000      304
 H       8.57001000       4.98890000       0.58241000      305
 H       7.48885000       1.31064000       2.45190000      306
 H       8.91254000       2.55590000       0.86231000      307
 C       2.09208000       7.21988000       2.42068000      308
 C       1.88280000       8.58718000       2.28653000      309
 C       1.37146000       6.37338000       1.58068000      310
 C       0.48063000       6.86900000       0.64787000      311
 C       0.99075000       9.08840000       1.35275000      312
 C       0.28431000       8.23376000       0.52817000      313
 H       1.50184000       5.30356000       1.64908000      314
 H       2.41219000       9.29042000       2.90879000      315
 H      -0.06300000       6.18574000       0.01140000      316
 H       0.84988000      10.15680000       1.27270000      317
 H      -0.41120000       8.62490000      -0.19950000      318
 C       5.44580000       8.11940000       6.12766000      319
 C       5.22809000       9.48452000       5.98506000      320
 C       6.36229000       7.71175000       7.09478000      321
 C       7.03268000       8.62584000       7.88494000      322
 C       5.89787000      10.40440000       6.77510000      323
 C       6.80373000       9.98184000       7.72919000      324
 H       6.56331000       6.66087000       7.24116000      325
 H       4.53040000       9.85891000       5.25358000      326
 H       7.73750000       8.27718000       8.62598000      327
 H       5.70681000      11.45940000       6.64020000      328
 H       7.32576000      10.69930000       8.34478000      329
 C       2.59485000      14.67950000       4.21018000      330
 C       3.39720000      13.73880000       5.11819000      331
 C       4.00924000      14.03340000       2.24467000      332
 C       4.83032000      13.08400000       3.12659000      333
 C       6.00852000      13.84760000       3.74459000      334
 C       5.50249000      15.02170000       4.59232000      335
 C       4.67229000      15.94460000       3.69149000      336
 C       3.47668000      15.20990000       3.07253000      337
 C       4.59412000      14.49390000       5.71012000      338
 C       3.93101000      12.58260000       4.26340000      339
 H       4.62066000      14.42330000       1.42915000      340
 H       3.18480000      13.47560000       1.79724000      341
 H       6.66666000      14.23320000       2.96412000      342
 H       6.59451000      13.15880000       4.35537000      343
 H       4.30411000      16.78350000       4.28602000      344
 H       5.30911000      16.32470000       2.88978000      345
 H       5.14710000      13.82030000       6.36696000      346
 H       4.25429000      15.33550000       6.31622000      347
 H       1.73736000      14.13670000       3.80883000      348
 H       2.20816000      15.52540000       4.78107000      349
 H       3.08644000      12.03910000       3.83442000      350
 H       4.50688000      11.90730000       4.89977000      351
 C       2.50247000      13.25870000       6.25147000      352
 C       1.93827000      14.19270000       7.11791000      353
 C       2.21131000      11.91840000       6.47504000      354
 C       1.39093000      11.52690000       7.52034000      355
 C       1.11937000      13.80670000       8.16182000      356
 C       0.84003000      12.46730000       8.36983000      357
 H       2.61917000      11.15090000       5.83729000      358
 H       2.13676000      15.24560000       6.98263000      359
 H       1.18333000      10.47680000       7.66819000      360
 H       0.69738000      14.55590000       8.81607000      361
 H       0.20054000      12.16170000       9.18460000      362
 C       5.36889000      11.94890000       2.26823000      363
 C       5.07010000      10.61170000       2.50073000      364
 C       6.20365000      12.24380000       1.19229000      365
 C       6.71790000      11.24840000       0.38348000      366
 C       5.58340000       9.61065000       1.69247000      367
 C       6.40979000       9.92179000       0.62960000      368
 H       6.46314000      13.26900000       0.97364000      369
 H       4.42971000      10.32320000       3.31845000      370
 H       7.36254000      11.51040000      -0.44310000      371
 H       5.33251000       8.58006000       1.89906000      372
 H       6.80972000       9.14108000      -0.00030000      373
 C       2.64143000      16.11180000       2.17567000      374
 C       2.94101000      17.45030000       1.95218000      375
 C       1.51744000      15.58920000       1.53925000      376
 C       0.72647000      16.36790000       0.71619000      377
 C       2.15087000      18.23450000       1.12785000      378
 C       1.03946000      17.69940000       0.50511000      379
 H       1.24615000      14.55390000       1.68337000      380
 H       3.79825000      17.90930000       2.41739000      381
 H      -0.13880000      15.93240000       0.23741000      382
 H       2.40999000      19.27230000       0.97403000      383
 H       0.42362000      18.31120000      -0.13730000      384
 C       6.69358000      15.73530000       5.21486000      385
 C       6.98315000      17.07490000       4.98458000      386
 C       7.54709000      15.02870000       6.05965000      387
 C       8.64189000      15.63180000       6.64876000      388
 C       8.07954000      17.68350000       5.57314000      389
 C       8.91545000      16.96690000       6.40814000      390
 H       7.36113000      13.98550000       6.26769000      391
 H       6.35833000      17.67200000       4.34032000      392
 H       9.28457000      15.05590000       7.29897000      393
 H       8.27817000      18.72700000       5.37446000      394
 H       9.77015000      17.44180000       6.86664000      395
 C       4.34720000      11.73200000      16.69110000      396
 C       2.98348000      11.56670000      16.00840000      397
 C       5.47744000      10.57920000      14.77410000      398
 C       4.12870000      10.39870000      14.06590000      399
 C       3.49029000       9.07541000      14.50700000      400
 C       3.27466000       9.06284000      16.02580000      401
 C       4.63405000       9.26164000      16.70770000      402
 C       5.28813000      10.58660000      16.29640000      403
 C       2.36009000      10.22820000      16.42420000      404
 C       3.20339000      11.54580000      14.49060000      405
 H       6.16126000       9.77168000      14.50710000      406
 H       5.92968000      11.51440000      14.43980000      407
 H       4.12767000       8.23278000      14.23380000      408
 H       2.54058000       8.94986000      13.98430000      409
 H       4.49190000       9.25727000      17.79050000      410
 H       5.29477000       8.43800000      16.42880000      411
 H       1.38390000      10.12950000      15.94640000      412
 H       2.20025000      10.19900000      17.50330000      413
 H       4.77285000      12.69430000      16.40150000      414
 H       4.23397000      11.73800000      17.77650000      415
 H       3.64978000      12.49410000      14.18360000      416
 H       2.23828000      11.42560000      13.99380000      417
 C       2.06718000      12.69960000      16.44720000      418
 C       1.77073000      12.85230000      17.80000000      419
 C       1.49951000      13.60590000      15.55970000      420
 C       0.67026000      14.62240000      16.00450000      421
 C       0.94412000      13.86480000      18.24820000      422
 C       0.38725000      14.75860000      17.35020000      423
 H       1.69292000      13.53730000      14.50140000      424
 H       2.18931000      12.17130000      18.52610000      425
 H       0.24400000      15.31150000      15.28960000      426
 H       0.73391000      13.95600000      19.30410000      427
 H      -0.25930000      15.55120000      17.69660000      428
 C       4.35753000      10.36330000      12.56200000      429
 C       3.78517000      11.27580000      11.68390000      430
 C       5.17746000       9.37598000      12.01950000      431
 C       5.41616000       9.30202000      10.66050000      432
 C       4.02173000      11.20540000      10.32080000      433
 C       4.83787000      10.21930000       9.80044000      434
 H       5.64361000       8.64529000      12.66370000      435
 H       3.14203000      12.06160000      12.04580000      436
 H       6.05704000       8.52401000      10.27140000      437
 H       3.56205000      11.92980000       9.66373000      438
 H       5.02204000      10.16470000       8.73775000      439
 C       6.63835000      10.80010000      16.96480000      440
 C       7.20287000       9.88723000      17.84760000      441
 C       7.35882000      11.96110000      16.69200000      442
 C       8.58850000      12.20140000      17.27460000      443
 C       8.43535000      10.12400000      18.43400000      444
 C       9.13565000      11.28140000      18.15200000      445
 H       6.95942000      12.69870000      16.01190000      446
 H       6.69186000       8.97127000      18.09640000      447
 H       9.12193000      13.11180000      17.04230000      448
 H       8.84779000       9.39485000      19.11660000      449
 H      10.09630000      11.46570000      18.60950000      450
 C       2.61155000       7.75217000      16.42300000      451
 C       3.18541000       6.84687000      17.30760000      452
 C       1.36852000       7.42571000      15.88480000      453
 C       0.72606000       6.24751000      16.21410000      454
 C       2.54487000       5.66462000      17.64060000      455
 C       1.31237000       5.35718000      17.09670000      456
 H       0.88439000       8.09916000      15.19320000      457
 H       4.14543000       7.04574000      17.75570000      458
 H      -0.23730000       6.02371000      15.77900000      459
 H       3.01700000       4.98097000      18.33160000      460
 H       0.81343000       4.43535000      17.35640000      461
 C      10.82090000       9.10739000       9.48673000      462
 C      11.52610000      10.43880000       9.19850000      463
 C      12.23610000       7.95435000       7.76950000      464
 C      12.96020000       9.27045000       7.45854000      465
 C      12.20570000      10.02330000       6.35539000      466
 C      10.76780000      10.32430000       6.79716000      467
 C      10.07320000       8.99486000       7.11740000      468
 C      10.79870000       8.22792000       8.23006000      469
 C      10.79030000      11.17640000       8.07259000      470
 C      12.95320000      10.13590000       8.72479000      471
 H      12.20820000       7.31456000       6.88583000      472
 H      12.79080000       7.41993000       8.54257000      473
 H      12.17710000       9.43191000       5.43867000      474