10
Properties=species:S:1:pos:R:3 energy:=T -17.930594211626=T gnorm:=T 0.000547427333=T xtb:=T 6.3.3=T (5b13467)=T pbc="F F F"
C        0.00000000       0.00000000       1.37383154
C       -0.83029661       1.08644763       1.99994149
C        1.35194181       0.20327724       2.00075668
C       -0.09409158       1.70978690       2.92336394
H       -0.41326737       2.50578556       3.57108080
H        2.03947660       1.51386854       3.57172997
C        1.25658208       1.16349302       2.92397308
H        2.20841566      -0.38222933       1.72751341
H       -1.85285644       1.26135323       1.72620763
H       -0.39831919      -0.98373249       1.67456772
