17
Properties=species:S:1:pos:R:3 Energy:=T 22.3607950=T pbc="F F F"
C       0.00000000       0.00000000       1.35787031
C      -0.54497245       1.11943261       3.43933359
C       0.52945141      -1.08755070       2.07637620
C      -0.53389426       1.09667680       2.04220441
C      -0.02233618       0.04588095       4.16515238
C       0.51697430      -1.06192136       3.49360174
C       1.07090078      -2.19974652       1.40922001
C       1.04412879      -2.14475395       4.21435085
C       1.57922750      -3.24390482       3.53708544
C       1.59255055      -3.27127182       2.14007320
H       1.09068091      -2.24037707       0.32700985
H       2.00849090      -4.12565847       1.62185146
H       1.04108612      -2.13850397       5.29788736
H       1.98477963      -4.07695294       4.09660065
H      -0.96001588       1.97197689       3.96128464
H      -0.03838844       0.07885402       5.24808783
H      -0.94086445       1.93263777       1.48791441
