14
Properties=species:S:1:pos:R:3 energy:=T -26.451164893606=T gnorm:=T 0.000340719888=T xtb:=T 6.4.1=T (afa7bdf)=T pbc="F F F"
C       -0.00000000       0.00000000       1.49751425
C        1.18558215      -0.02627742       2.21483551
C       -0.03003908       0.00082186       4.32124674
C       -1.20983503       0.02693390       3.58444309
C        1.15271079      -0.02546392       3.59730713
C       -1.19826660       0.02660449       2.20384889
H       -2.15155226       0.04783664       4.11343880
H       -2.13194130       0.04727388       1.66095951
C       -0.04572180       0.00141512       5.81888674
F        2.33565774      -0.05168518       4.25856066
H        2.14156849      -0.04752941       1.71410951
H       -0.58920162      -0.86650771       6.19021678
H       -0.54651982       0.89480074       6.18989717
H        0.96512663      -0.02294228       6.21638572
