14
 energy: -46.878857902993 gnorm: 0.000614499265 xtb: 6.4.1 (afa7bdf)
S         2.17838284506883   -0.02634149065151   -0.00927649374691
C         0.99209946732378   -1.00347054315165    1.00260153876343
F         1.75978331122822   -1.77984425825389    1.78094747946564
S         0.02618112505078    2.17882078503244   -0.01912354716963
C        -0.98395976173908    1.02126580989697    0.99360208271211
F        -1.74487558382997    1.81113621796903    1.76498363678910
S        -2.17896127907637    0.02677183694170    0.00927555656396
C        -1.01700587885693   -0.99645433955927   -0.98510604987003
F        -1.80350802017029   -1.76744879775252   -1.74989290662722
S        -0.00978952581483   -0.01875578301755   -2.17650259364232
C         1.00770556322709    0.97947939435752   -1.01115947237264
F         1.78743826835859    1.73697721668057   -1.79610003619734
S        -0.02676766393311   -2.17840826846781    0.01906141740074
S         0.00921313316331    0.01916121997596    2.17647138793112
