14
 energy: -46.443136686232 gnorm: 0.000538820518 xtb: 6.4.1 (afa7bdf)
Se        2.39085161214910   -0.02892511992676   -0.01017447962689
C         1.05906424135136   -1.07120192781191    1.06974398788557
F         1.83337589054609   -1.85427879901156    1.85485697180944
Se        0.02875781616612    2.39128773216077   -0.02099226114225
C        -1.05034001658463    1.09016229538807    1.06013930841543
F        -1.81782510410150    1.88685276646243    1.83822801023347
Se       -2.39142972506814    0.02935854019765    0.01018624993689
C        -1.08561033107067   -1.06370598387301   -1.05106767435827
F        -1.87890493795026   -1.84135586299143   -1.82250409655349
Se       -0.01071587128243   -0.02060249638281   -2.38856196140473
C         1.07572696278112    1.04556431785417   -1.07887750085760
F         1.86219249978848    1.80960077128654   -1.87064265771458
Se       -0.02934553094872   -2.39087389858337    0.02091742479555
Se        0.01013849422407    0.02100666523120    2.38853067858145
