26
 energy: -45.799716815563 gnorm: 0.000088578372 xtb: 6.4.1 (afa7bdf)
C         2.31691088511247   -0.02796708133493   -0.00986846728788
Ge        1.10431381132012   -1.11685921084940    1.11831512820983
F         2.12539024415337   -2.14946304030068    2.15201287875247
C         0.02780020825438    2.31736969281361   -0.02033118992952
Ge       -1.09521173773535    1.13670275902819    1.10827196617487
F        -2.10731351607759    2.18723352373233    2.13269070095805
C        -2.31751888806870    0.02841741589701    0.00984316963400
Ge       -1.13192975916401   -1.10916591068873   -1.09883298441741
F        -2.17797578231320   -2.13465289851447   -2.11449194105553
C        -0.01040517252574   -0.01996899573531   -2.31732642439805
Ge        1.12161241423076    1.09021104459150   -1.12781909872020
F         2.15868313637204    2.09776584409195   -2.17027577137137
C        -0.02840979831297   -2.31692596164703    0.02029100282370
C         0.00979980958170    0.02041026268457    2.31729409770342
H        -0.59146139301506    2.95677343583202   -0.64754264848092
H         0.66251482478005    2.95247383913420    0.59570141750025
H        -2.94994280405585    0.65497960547145   -0.61719445086293
H        -2.95963982300177   -0.58263833414786    0.64230490590041
H         0.60350700498198   -0.65736276843329   -2.95179963276325
H        -0.62986973899303    0.60631734427540   -2.95743912033020
H        -0.65768120546760   -2.94114853080623    0.65280973984982
H         0.58540521516710   -2.96721154069645   -0.60105933101796
H         2.96446899884460    0.59397013589775    0.60623134870938
H         2.94389770021785   -0.66540250998254   -0.63138245726161
H         0.64441177951005    0.64260883206771    2.94646171802941
H        -0.61925741379559   -0.59068495238076    2.96271244365122
