20
 energy: -46.293870350963 gnorm: 0.000211431290 xtb: 6.4.1 (afa7bdf)
Se        3.06382311435045   -0.01035777599514    0.01822671560979
Sn        1.24263712626417   -1.25544383322791    1.37020268529468
F         2.18454001801614   -2.20271326853163    2.82145403181082
C        -0.13590391935058    2.39426243113684    0.15149090729040
Si       -1.19632709216144    1.24190853770900    1.21704019048665
F        -2.11458122298127    2.19547331795995    2.14757435008113
C        -2.38832988064602    0.19682884520570    0.18034498823152
Sn       -1.38158537578144   -1.24509140061478   -1.23033241288586
F        -2.84532000522181   -2.18258484957255   -2.16268132753204
Se       -0.04139049624001    0.00210128098434   -3.05902905447650
Sn        1.26245451555145    1.33390016386422   -1.26381538768428
F         2.22299411967427    2.76196185855444   -2.22752945777844
Se       -0.06523165334588   -3.06287773847404    0.05837499603948
C        -0.15307603269158    0.18787905814257    2.39537333511353
H        -3.03181553597657   -0.42355820739188    0.80236818324972
H        -3.02225839752717    0.81300179778893   -0.45552499382565
H        -0.77158463218691   -0.43275532392084    3.04200346202021
H         0.49109766586975    0.79888433560910    3.02591047165587
H        -0.74456949842975    3.03509261922432   -0.48470161720962
H         0.50833718281430    3.03007815154920    0.75693993450861
