14
 energy: -46.953650434600 gnorm: 0.000005767005 xtb: 6.3.0 (007a174)
Se        3.11197650521656   -0.03870924840827   -0.01314785320083
Sn        1.39986042630195   -1.41637570876336    1.41762150079464
F         2.52758174164334   -2.55724689276687    2.55975310364201
Se        0.03840628862824    3.11160994590666   -0.02741979887614
Sn       -1.38754479527508    1.44063410254339    1.40467634739327
F        -2.50541194169166    2.60142422131411    2.53637857121555
Se       -3.11188905905375    0.03825129824467    0.01314454356102
Sn       -1.43456308145485   -1.40619742348106   -1.39275344626219
F        -2.59031077946585   -2.53887061914022   -2.51485366902772
Se       -0.01343789824424   -0.02749058836924   -3.11202990153740
Sn        1.42242253178534    1.38101747521734   -1.42954642571135
F         2.56831522695518    2.49377901557743   -2.58128440752152
Se       -0.03831966760920   -3.11207229893002    0.02742289512617
Se        0.01353050226401    0.02702772105546    3.11202854040447
